ITEM: TIMESTEP
60000
ITEM: NUMBER OF ATOMS
2
ITEM: BOX BOUNDS pp pp pp
4.8583797647067808e+00 3.0147620235293356e+01
4.8583797647067808e+00 3.0147620235293356e+01
4.8583797647067808e+00 3.0147620235293356e+01
ITEM: ATOMS id type x y z fx fy fz
1556 4 20.5455 17.2595 8.78736 100.57 20.6302 42.8213
1555 3 21.1493 17.302 24.0962 -1.55364 -4.43553 -9.94646
ITEM: TIMESTEP
60010
ITEM: NUMBER OF ATOMS
2
ITEM: BOX BOUNDS pp pp pp
4.8580436317334623e+00 3.0147956368266676e+01
4.8580436317334623e+00 3.0147956368266676e+01
4.8580436317334623e+00 3.0147956368266676e+01
ITEM: ATOMS id type x y z fx fy fz
1556 4 20.5494 17.2672 8.78575 -14.9436 26.606 32.6768
1555 3 21.158 17.3081 24.0936 -2.96353 -7.12543 -5.38679
ITEM: TIMESTEP
60020
ITEM: NUMBER OF ATOMS
2
ITEM: BOX BOUNDS pp pp pp
4.8577095224257913e+00 3.0148290477574349e+01
4.8577095224257913e+00 3.0148290477574349e+01
4.8577095224257913e+00 3.0148290477574349e+01
ITEM: ATOMS id type x y z fx fy fz
1556 4 20.5523 17.2756 8.78613 -93.5814 -67.9976 -65.0269
1555 3 21.1665 17.3138 24.0907 -4.8867 -9.96178 3.86408
ITEM: TIMESTEP
60030
ITEM: NUMBER OF ATOMS
2
ITEM: BOX BOUNDS pp pp pp
4.8573766249683779e+00 3.0148623375031768e+01
4.8573766249683779e+00 3.0148623375031768e+01
4.8573766249683779e+00 3.0148623375031768e+01
ITEM: ATOMS id type x y z fx fy fz
1556 4 20.5468 17.2799 8.78139 -159.082 -39.7456 -62.9846
1555 3 21.1747 17.3187 24.0879 -6.39897 -12.7527 3.37854
ITEM: TIMESTEP
60040
ITEM: NUMBER OF ATOMS
2
ITEM: BOX BOUNDS pp pp pp
4.8570431839006041e+00 3.0148956816099542e+01
4.8570431839006041e+00 3.0148956816099542e+01
4.8570431839006041e+00 3.0148956816099542e+01
ITEM: ATOMS id type x y z fx fy fz
1556 4 20.5286 17.2801 8.7715 -63.7179 -33.1297 -9.30834
1555 3 21.1824 17.3227 24.0854 -7.37939 -15.2567 -6.31875
ITEM: TIMESTEP
60050
ITEM: NUMBER OF ATOMS
2
ITEM: BOX BOUNDS pp pp pp
4.8567074435955853e+00 3.0149292556404554e+01
4.8567074435955853e+00 3.0149292556404554e+01
4.8567074435955853e+00 3.0149292556404554e+01
ITEM: ATOMS id type x y z fx fy fz
1556 4 20.505 17.2775 8.76049 77.8574 20.8376 18.8722
1555 3 21.1895 17.3256 24.0824 -8.13909 -17.1548 -16.6442
ITEM: TIMESTEP
60060
ITEM: NUMBER OF ATOMS
2
ITEM: BOX BOUNDS pp pp pp
4.8563679025636723e+00 3.0149632097436474e+01
4.8563679025636723e+00 3.0149632097436474e+01
4.8563679025636723e+00 3.0149632097436474e+01
ITEM: ATOMS id type x y z fx fy fz
1556 4 20.4873 17.2766 8.75206 123.85 32.6698 126.564
1555 3 21.1961 17.3272 24.0782 -8.99108 -18.0863 -20.2198
ITEM: TIMESTEP
60070
ITEM: NUMBER OF ATOMS
2
ITEM: BOX BOUNDS pp pp pp
4.8560244338304379e+00 3.0149975566169715e+01
4.8560244338304379e+00 3.0149975566169715e+01
4.8560244338304379e+00 3.0149975566169715e+01
ITEM: ATOMS id type x y z fx fy fz
1556 4 20.4803 17.2786 8.75273 117.988 59.5036 31.7855
1555 3 21.2019 17.3276 24.0727 -10.7266 -17.8061 -4.53735
ITEM: TIMESTEP
60080
ITEM: NUMBER OF ATOMS
2
ITEM: BOX BOUNDS pp pp pp
4.8556806545138116e+00 3.0150319345486345e+01
4.8556806545138116e+00 3.0150319345486345e+01
4.8556806545138116e+00 3.0150319345486345e+01
ITEM: ATOMS id type x y z fx fy fz
1556 4 20.4831 17.285 8.7573 38.187 -16.5358 24.4997
1555 3 21.2071 17.3266 24.0668 -12.4067 -16.1576 18.038
ITEM: TIMESTEP
60090
ITEM: NUMBER OF ATOMS
2
ITEM: BOX BOUNDS pp pp pp
4.8553416433864971e+00 3.0150658356613661e+01
4.8553416433864971e+00 3.0150658356613661e+01
4.8553416433864971e+00 3.0150658356613661e+01
ITEM: ATOMS id type x y z fx fy fz
1556 4 20.4894 17.2907 8.7631 -40.6502 -8.46034 -72.3258
1555 3 21.2113 17.3245 24.0623 -13.4982 -13.3039 39.786
ITEM: TIMESTEP
60100
ITEM: NUMBER OF ATOMS
2
ITEM: BOX BOUNDS pp pp pp
4.8550111049530127e+00 3.0150988895047135e+01
4.8550111049530127e+00 3.0150988895047135e+01
4.8550111049530127e+00 3.0150988895047135e+01
ITEM: ATOMS id type x y z fx fy fz
1556 4 20.492 17.2952 8.76349 -108.973 -49.3943 -64.5723
1555 3 21.2145 17.3214 24.0606 -13.0529 -9.57139 45.4415
ITEM: TIMESTEP
60110
ITEM: NUMBER OF ATOMS
2
ITEM: BOX BOUNDS pp pp pp
4.8546890783521928e+00 3.0151310921647962e+01
4.8546890783521928e+00 3.0151310921647962e+01
4.8546890783521928e+00 3.0151310921647962e+01
ITEM: ATOMS id type x y z fx fy fz
1556 4 20.4857 17.2957 8.75756 -82.518 -46.0238 -99.0378
1555 3 21.2168 17.3177 24.0621 -11.1014 -5.37022 33.0371
ITEM: TIMESTEP
60120
ITEM: NUMBER OF ATOMS
2
ITEM: BOX BOUNDS pp pp pp
4.8543721354123317e+00 3.0151627864587812e+01
4.8543721354123317e+00 3.0151627864587812e+01
4.8543721354123317e+00 3.0151627864587812e+01
ITEM: ATOMS id type x y z fx fy fz
1556 4 20.4722 17.2921 8.74411 -14.9786 -13.0671 -1.45279
1555 3 21.2183 17.3135 24.0658 -7.65104 -0.997385 1.91503
ITEM: TIMESTEP
60130
ITEM: NUMBER OF ATOMS
2
ITEM: BOX BOUNDS pp pp pp
4.8540536962569281e+00 3.0151946303743212e+01
4.8540536962569281e+00 3.0151946303743212e+01
4.8540536962569281e+00 3.0151946303743212e+01
ITEM: ATOMS id type x y z fx fy fz
1556 4 20.4576 17.2877 8.73039 96.0706 29.18 91.1064
1555 3 21.2192 17.3092 24.0697 -4.07774 3.30875 -29.8951
ITEM: TIMESTEP
60140
ITEM: NUMBER OF ATOMS
2
ITEM: BOX BOUNDS pp pp pp
4.8537266043962060e+00 3.0152273395603935e+01
4.8537266043962060e+00 3.0152273395603935e+01
4.8537266043962060e+00 3.0152273395603935e+01
ITEM: ATOMS id type x y z fx fy fz
1556 4 20.451 17.2857 8.72371 150.11 70.3105 87.4668
1555 3 21.2199 17.3052 24.0716 -1.913 7.28819 -44.7003
ITEM: TIMESTEP
60150
ITEM: NUMBER OF ATOMS
2
ITEM: BOX BOUNDS pp pp pp
4.8533872349461191e+00 3.0152612765054034e+01
4.8533872349461191e+00 3.0152612765054034e+01
4.8533872349461191e+00 3.0152612765054034e+01
ITEM: ATOMS id type x y z fx fy fz
1556 4 20.4568 17.2887 8.72491 74.5105 -15.4803 84.1712
1555 3 21.2204 17.3018 24.0703 -1.59532 10.7084 -39.293
ITEM: TIMESTEP
60160
ITEM: NUMBER OF ATOMS
2
ITEM: BOX BOUNDS pp pp pp
4.8530371738709324e+00 3.0152962826129226e+01
4.8530371738709324e+00 3.0152962826129226e+01
4.8530371738709324e+00 3.0152962826129226e+01
ITEM: ATOMS id type x y z fx fy fz
1556 4 20.4685 17.2919 8.7328 -64.6622 26.2028 -18.6536
1555 3 21.2207 17.2991 24.0662 -2.94967 13.4186 -15.8502
ITEM: TIMESTEP
60170
ITEM: NUMBER OF ATOMS
2
ITEM: BOX BOUNDS pp pp pp
4.8526813548146048e+00 3.0153318645185561e+01
4.8526813548146048e+00 3.0153318645185561e+01
4.8526813548146048e+00 3.0153318645185561e+01
ITEM: ATOMS id type x y z fx fy fz
1556 4 20.4759 17.2953 8.73941 -87.2442 -103.559 -81.0065
1555 3 21.2209 17.2973 24.061 -4.58357 15.3382 8.06359
ITEM: TIMESTEP
60180
ITEM: NUMBER OF ATOMS
2
ITEM: BOX BOUNDS pp pp pp
4.8523246274095602e+00 3.0153675372590605e+01
4.8523246274095602e+00 3.0153675372590605e+01
4.8523246274095602e+00 3.0153675372590605e+01
ITEM: ATOMS id type x y z fx fy fz
1556 4 20.4752 17.2924 8.73948 -115.457 -5.22958 -76.1638
1555 3 21.2207 17.2967 24.0564 -5.48529 16.4049 19.1012
ITEM: TIMESTEP
60190
ITEM: NUMBER OF ATOMS
2
ITEM: BOX BOUNDS pp pp pp
4.8519701011617364e+00 3.0154029898838420e+01
4.8519701011617364e+00 3.0154029898838420e+01
4.8519701011617364e+00 3.0154029898838420e+01
ITEM: ATOMS id type x y z fx fy fz
1556 4 20.4659 17.2871 8.73308 -18.611 -48.699 -40.5655
1555 3 21.2201 17.2973 24.053 -5.49568 16.6728 15.8059
ITEM: TIMESTEP
60200
ITEM: NUMBER OF ATOMS
2
ITEM: BOX BOUNDS pp pp pp
4.8516184409658507e+00 3.0154381559034306e+01
4.8516184409658507e+00 3.0154381559034306e+01
4.8516184409658507e+00 3.0154381559034306e+01
ITEM: ATOMS id type x y z fx fy fz
1556 4 20.4543 17.2793 8.72332 40.0116 52.6442 9.82719
1555 3 21.2192 17.2991 24.0507 -4.92528 16.2425 3.92015
ITEM: TIMESTEP
60210
ITEM: NUMBER OF ATOMS
2
ITEM: BOX BOUNDS pp pp pp
4.8512678549326704e+00 3.0154732145067488e+01
4.8512678549326704e+00 3.0154732145067488e+01
4.8512678549326704e+00 3.0154732145067488e+01
ITEM: ATOMS id type x y z fx fy fz
1556 4 20.4469 17.2747 8.7144 134.659 28.5937 68.7963
1555 3 21.2178 17.302 24.0487 -4.39094 15.2464 -7.5037
ITEM: TIMESTEP
60220
ITEM: NUMBER OF ATOMS
2
ITEM: BOX BOUNDS pp pp pp
4.8509156998525391e+00 3.0155084300147621e+01
4.8509156998525391e+00 3.0155084300147621e+01
4.8509156998525391e+00 3.0155084300147621e+01
ITEM: ATOMS id type x y z fx fy fz
1556 4 20.4502 17.2734 8.71138 123.775 58.6973 86.1666
1555 3 21.2162 17.3061 24.0462 -4.69113 13.7656 -7.86849
ITEM: TIMESTEP
60230
ITEM: NUMBER OF ATOMS
2
ITEM: BOX BOUNDS pp pp pp
4.8505614130632999e+00 3.0155438586936857e+01
4.8505614130632999e+00 3.0155438586936857e+01
4.8505614130632999e+00 3.0155438586936857e+01
ITEM: ATOMS id type x y z fx fy fz
1556 4 20.464 17.2768 8.71506 37.2022 37.3346 5.14519
1555 3 21.2142 17.3112 24.0432 -5.91864 11.9156 4.47669
ITEM: TIMESTEP
60240
ITEM: NUMBER OF ATOMS
2
ITEM: BOX BOUNDS pp pp pp
4.8502069850629912e+00 3.0155793014937160e+01
4.8502069850629912e+00 3.0155793014937160e+01
4.8502069850629912e+00 3.0155793014937160e+01
ITEM: ATOMS id type x y z fx fy fz
1556 4 20.4811 17.2825 8.71919 -72.6294 -66.5816 -72.6976
1555 3 21.2118 17.3171 24.0406 -7.02712 9.89058 16.5426
ITEM: TIMESTEP
60250
ITEM: NUMBER OF ATOMS
2
ITEM: BOX BOUNDS pp pp pp
4.8498540217165313e+00 3.0156145978283625e+01
4.8498540217165313e+00 3.0156145978283625e+01
4.8498540217165313e+00 3.0156145978283625e+01
ITEM: ATOMS id type x y z fx fy fz
1556 4 20.4914 17.2842 8.7176 -162.561 -28.2591 -101.282
1555 3 21.2088 17.3238 24.0391 -7.11783 7.86545 15.8471
ITEM: TIMESTEP
60260
ITEM: NUMBER OF ATOMS
2
ITEM: BOX BOUNDS pp pp pp
4.8495024242375386e+00 3.0156497575762614e+01
4.8495024242375386e+00 3.0156497575762614e+01
4.8495024242375386e+00 3.0156497575762614e+01
ITEM: ATOMS id type x y z fx fy fz
1556 4 20.4897 17.2823 8.70714 -63.5747 -37.4498 -73.6078
1555 3 21.2054 17.331 24.0386 -5.84133 6.02441 -3.01399
ITEM: TIMESTEP
60270
ITEM: NUMBER OF ATOMS
2
ITEM: BOX BOUNDS pp pp pp
4.8491503514429439e+00 3.0156849648557213e+01
4.8491503514429439e+00 3.0156849648557213e+01
4.8491503514429439e+00 3.0156849648557213e+01
ITEM: ATOMS id type x y z fx fy fz
1556 4 20.4817 17.278 8.69141 3.91835 21.1147 65.4242
1555 3 21.2015 17.3387 24.0378 -3.79323 4.49535 -30.9842
ITEM: TIMESTEP
60280
ITEM: NUMBER OF ATOMS
2
ITEM: BOX BOUNDS pp pp pp
4.8487945880234893e+00 3.0157205411976662e+01
4.8487945880234893e+00 3.0157205411976662e+01
4.8487945880234893e+00 3.0157205411976662e+01
ITEM: ATOMS id type x y z fx fy fz
1556 4 20.4747 17.2751 8.68022 106.458 40.1069 78.0911
1555 3 21.1974 17.3467 24.0349 -2.58146 3.25349 -45.6712
ITEM: TIMESTEP
60290
ITEM: NUMBER OF ATOMS
2
ITEM: BOX BOUNDS pp pp pp
4.8484332117381097e+00 3.0157566788262042e+01
4.8484332117381097e+00 3.0157566788262042e+01
4.8484332117381097e+00 3.0157566788262042e+01
ITEM: ATOMS id type x y z fx fy fz
1556 4 20.476 17.2759 8.67623 92.1979 59.3636 98.0991
1555 3 21.193 17.3549 24.0288 -2.71642 2.2555 -40.7514
ITEM: TIMESTEP
60300
ITEM: NUMBER OF ATOMS
2
ITEM: BOX BOUNDS pp pp pp
4.8480677500748950e+00 3.0157932249925253e+01
4.8480677500748950e+00 3.0157932249925253e+01
4.8480677500748950e+00 3.0157932249925253e+01
ITEM: ATOMS id type x y z fx fy fz
1556 4 20.4854 17.2815 8.68043 42.1417 18.7593 55.3568
1555 3 21.1885 17.3633 24.0198 -4.23618 1.48647 -14.9184
ITEM: TIMESTEP
60310
ITEM: NUMBER OF ATOMS
2
ITEM: BOX BOUNDS pp pp pp
4.8477033886714462e+00 3.0158296611328709e+01
4.8477033886714462e+00 3.0158296611328709e+01
4.8477033886714462e+00 3.0158296611328709e+01
ITEM: ATOMS id type x y z fx fy fz
1556 4 20.4984 17.2889 8.68887 -23.1917 9.28283 -56.6072
1555 3 21.1836 17.3718 24.0098 -6.21671 1.02028 20.8736
ITEM: TIMESTEP
60320
ITEM: NUMBER OF ATOMS
2
ITEM: BOX BOUNDS pp pp pp
4.8473462520263677e+00 3.0158653747973780e+01
4.8473462520263677e+00 3.0158653747973780e+01
4.8473462520263677e+00 3.0158653747973780e+01
ITEM: ATOMS id type x y z fx fy fz
1556 4 20.5091 17.297 8.69304 -111.138 -34.9566 -102.179
1555 3 21.1783 17.3804 24.0013 -7.15923 0.95938 45.4159
ITEM: TIMESTEP
60330
ITEM: NUMBER OF ATOMS
2
ITEM: BOX BOUNDS pp pp pp
4.8469997395281297e+00 3.0159000260472013e+01
4.8469997395281297e+00 3.0159000260472013e+01
4.8469997395281297e+00 3.0159000260472013e+01
ITEM: ATOMS id type x y z fx fy fz
1556 4 20.511 17.3021 8.68821 -111.265 -43.7362 -112.227
1555 3 21.1725 17.3891 23.9959 -6.37853 1.26862 46.6324
ITEM: TIMESTEP
60340
ITEM: NUMBER OF ATOMS
2
ITEM: BOX BOUNDS pp pp pp
4.8466633801074543e+00 3.0159336619892684e+01
4.8466633801074543e+00 3.0159336619892684e+01
4.8466633801074543e+00 3.0159336619892684e+01
ITEM: ATOMS id type x y z fx fy fz
1556 4 20.5033 17.304 8.67445 -28.6807 -1.00227 -37.6082
1555 3 21.1662 17.3979 23.9938 -3.96699 1.85357 24.5197
ITEM: TIMESTEP
60350
ITEM: NUMBER OF ATOMS
2
ITEM: BOX BOUNDS pp pp pp
4.8463333524098964e+00 3.0159666647590242e+01
4.8463333524098964e+00 3.0159666647590242e+01
4.8463333524098964e+00 3.0159666647590242e+01
ITEM: ATOMS id type x y z fx fy fz
1556 4 20.4938 17.3057 8.65733 98.8969 47.334 56.8606
1555 3 21.1596 17.4068 23.9933 -0.807756 2.55452 -7.60672
ITEM: TIMESTEP
60360
ITEM: NUMBER OF ATOMS
2
ITEM: BOX BOUNDS pp pp pp
4.8460041876655424e+00 3.0159995812334600e+01
4.8460041876655424e+00 3.0159995812334600e+01
4.8460041876655424e+00 3.0159995812334600e+01
ITEM: ATOMS id type x y z fx fy fz
1556 4 20.4924 17.3108 8.64514 136.29 19.9648 116.594
1555 3 21.153 17.4158 23.9924 1.72131 3.13325 -29.9634
ITEM: TIMESTEP
60370
ITEM: NUMBER OF ATOMS
2
ITEM: BOX BOUNDS pp pp pp
4.8456729019337068e+00 3.0160327098066439e+01
4.8456729019337068e+00 3.0160327098066439e+01
4.8456729019337068e+00 3.0160327098066439e+01
ITEM: ATOMS id type x y z fx fy fz
1556 4 20.5017 17.3191 8.64221 53.3729 67.4886 45.1123
1555 3 21.1465 17.4252 23.9894 2.79017 3.42119 -30.9405
ITEM: TIMESTEP
60380
ITEM: NUMBER OF ATOMS
2
ITEM: BOX BOUNDS pp pp pp
4.8453410466768130e+00 3.0160658953323335e+01
4.8453410466768130e+00 3.0160658953323335e+01
4.8453410466768130e+00 3.0160658953323335e+01
ITEM: ATOMS id type x y z fx fy fz
1556 4 20.5161 17.3312 8.64339 -31.8522 -41.0534 -3.13481
1555 3 21.1402 17.4347 23.9843 3.03637 3.49765 -19.621
ITEM: TIMESTEP
60390
ITEM: NUMBER OF ATOMS
2
ITEM: BOX BOUNDS pp pp pp
4.8450117886322719e+00 3.0160988211367886e+01
4.8450117886322719e+00 3.0160988211367886e+01
4.8450117886322719e+00 3.0160988211367886e+01
ITEM: ATOMS id type x y z fx fy fz
1556 4 20.5274 17.3414 8.64447 -119.044 -20.2876 -46.2951
1555 3 21.1341 17.4445 23.9778 3.04553 3.44408 -4.82707
ITEM: TIMESTEP
60400
ITEM: NUMBER OF ATOMS
2
ITEM: BOX BOUNDS pp pp pp
4.8446876138205859e+00 3.0161312386179578e+01
4.8446876138205859e+00 3.0161312386179578e+01
4.8446876138205859e+00 3.0161312386179578e+01
ITEM: ATOMS id type x y z fx fy fz
1556 4 20.5293 17.349 8.64125 -109.201 -33.7883 -93.495
1555 3 21.1282 17.4546 23.9708 3.33127 3.34274 3.69274
ITEM: TIMESTEP
60410
ITEM: NUMBER OF ATOMS
2
ITEM: BOX BOUNDS pp pp pp
4.8443693731592141e+00 3.0161630626840942e+01
4.8443693731592141e+00 3.0161630626840942e+01
4.8443693731592141e+00 3.0161630626840942e+01
ITEM: ATOMS id type x y z fx fy fz
1556 4 20.5215 17.3542 8.63094 -73.2954 -26.0112 -24.1697
1555 3 21.1225 17.4649 23.964 4.21052 3.27017 -0.828312
ITEM: TIMESTEP
60420
ITEM: NUMBER OF ATOMS
2
ITEM: BOX BOUNDS pp pp pp
4.8440555969168457e+00 3.0161944403083325e+01
4.8440555969168457e+00 3.0161944403083325e+01
4.8440555969168457e+00 3.0161944403083325e+01
ITEM: ATOMS id type x y z fx fy fz
1556 4 20.5079 17.3571 8.61803 25.8711 8.98828 11.0285
1555 3 21.1172 17.4755 23.9572 5.16074 3.17998 -9.38756
ITEM: TIMESTEP
60430
ITEM: NUMBER OF ATOMS
2
ITEM: BOX BOUNDS pp pp pp
4.8437431359342771e+00 3.0162256864065903e+01
4.8437431359342771e+00 3.0162256864065903e+01
4.8437431359342771e+00 3.0162256864065903e+01
ITEM: ATOMS id type x y z fx fy fz
1556 4 20.4966 17.3608 8.60641 128.837 33.1418 64.6595
1555 3 21.1123 17.4863 23.9497 5.77741 3.04052 -14.0836
ITEM: TIMESTEP
60440
ITEM: NUMBER OF ATOMS
2
ITEM: BOX BOUNDS pp pp pp
4.8434286884195465e+00 3.0162571311580642e+01
4.8434286884195465e+00 3.0162571311580642e+01
4.8434286884195465e+00 3.0162571311580642e+01
ITEM: ATOMS id type x y z fx fy fz
1556 4 20.4958 17.3678 8.60018 126.688 70.1318 80.8871
1555 3 21.1077 17.4973 23.9412 5.66719 2.78643 -7.25118
ITEM: TIMESTEP
60450
ITEM: NUMBER OF ATOMS
2
ITEM: BOX BOUNDS pp pp pp
4.8431116881203504e+00 3.0162888311879826e+01
4.8431116881203504e+00 3.0162888311879826e+01
4.8431116881203504e+00 3.0162888311879826e+01
ITEM: ATOMS id type x y z fx fy fz
1556 4 20.5058 17.379 8.60027 41.7569 -30.3877 5.5567
1555 3 21.1036 17.5085 23.9323 4.88909 2.41783 11.77
ITEM: TIMESTEP
60460
ITEM: NUMBER OF ATOMS
2
ITEM: BOX BOUNDS pp pp pp
4.8427949894162623e+00 3.0163205010583908e+01
4.8427949894162623e+00 3.0163205010583908e+01
4.8427949894162623e+00 3.0163205010583908e+01
ITEM: ATOMS id type x y z fx fy fz
1556 4 20.5186 17.3897 8.60068 -106.936 5.28174 -95.7874
1555 3 21.0998 17.5199 23.9242 4.31885 2.08466 29.3404
ITEM: TIMESTEP
60470
ITEM: NUMBER OF ATOMS
2
ITEM: BOX BOUNDS pp pp pp
4.8424816091504326e+00 3.0163518390849735e+01
4.8424816091504326e+00 3.0163518390849735e+01
4.8424816091504326e+00 3.0163518390849735e+01
ITEM: ATOMS id type x y z fx fy fz
1556 4 20.5232 17.3991 8.59372 -145.53 -68.0616 -74.6058
1555 3 21.0963 17.5314 23.9182 4.83027 1.97375 28.8995
ITEM: TIMESTEP
60480
ITEM: NUMBER OF ATOMS
2
ITEM: BOX BOUNDS pp pp pp
4.8421724118856115e+00 3.0163827588114557e+01
4.8421724118856115e+00 3.0163827588114557e+01
4.8421724118856115e+00 3.0163827588114557e+01
ITEM: ATOMS id type x y z fx fy fz
1556 4 20.5158 17.4038 8.57986 -64.0683 -26.7268 -64.3349
1555 3 21.0932 17.5431 23.9141 6.33564 2.06288 11.8473
ITEM: TIMESTEP
60490
ITEM: NUMBER OF ATOMS
2
ITEM: BOX BOUNDS pp pp pp
4.8418662151657248e+00 3.0164133784834448e+01
4.8418662151657248e+00 3.0164133784834448e+01
4.8418662151657248e+00 3.0164133784834448e+01
ITEM: ATOMS id type x y z fx fy fz
1556 4 20.5025 17.4059 8.56101 13.8978 -13.8317 13.5965
1555 3 21.0906 17.555 23.9109 8.69053 2.34362 -16.0885
ITEM: TIMESTEP
60500
ITEM: NUMBER OF ATOMS
2
ITEM: BOX BOUNDS pp pp pp
4.8415596542662040e+00 3.0164440345733965e+01
4.8415596542662040e+00 3.0164440345733965e+01
4.8415596542662040e+00 3.0164440345733965e+01
ITEM: ATOMS id type x y z fx fy fz
1556 4 20.4905 17.4067 8.5432 87.3858 -1.63726 81.7808
1555 3 21.0886 17.567 23.9065 11.1956 2.65231 -39.5655
ITEM: TIMESTEP
60510
ITEM: NUMBER OF ATOMS
2
ITEM: BOX BOUNDS pp pp pp
4.8412490375669641e+00 3.0164750962433203e+01
4.8412490375669641e+00 3.0164750962433203e+01
4.8412490375669641e+00 3.0164750962433203e+01
ITEM: ATOMS id type x y z fx fy fz
1556 4 20.4857 17.4076 8.53211 101.032 22.8316 85.9107
1555 3 21.0874 17.5792 23.8993 13.0731 2.74891 -44.4783
ITEM: TIMESTEP
60520
ITEM: NUMBER OF ATOMS
2
ITEM: BOX BOUNDS pp pp pp
4.8409332136073804e+00 3.0165066786392792e+01
4.8409332136073804e+00 3.0165066786392792e+01
4.8409332136073804e+00 3.0165066786392792e+01
ITEM: ATOMS id type x y z fx fy fz
1556 4 20.4896 17.4096 8.52824 82.3734 -26.4517 47.0944
1555 3 21.0872 17.5916 23.889 14.1732 2.51358 -29.2818
ITEM: TIMESTEP
60530
ITEM: NUMBER OF ATOMS
2
ITEM: BOX BOUNDS pp pp pp
4.8406142913699313e+00 3.0165385708630250e+01
4.8406142913699313e+00 3.0165385708630250e+01
4.8406142913699313e+00 3.0165385708630250e+01
ITEM: ATOMS id type x y z fx fy fz
1556 4 20.4999 17.4103 8.52849 -31.1188 -4.11173 3.365
1555 3 21.088 17.6042 23.8767 14.8285 1.97507 -1.9827
ITEM: TIMESTEP
60540
ITEM: NUMBER OF ATOMS
2
ITEM: BOX BOUNDS pp pp pp
4.8402959184448644e+00 3.0165704081555322e+01
4.8402959184448644e+00 3.0165704081555322e+01
4.8402959184448644e+00 3.0165704081555322e+01
ITEM: ATOMS id type x y z fx fy fz
1556 4 20.5077 17.4094 8.52897 -125.799 -61.7612 -62.5125
1555 3 21.0898 17.617 23.8642 15.3411 1.21609 26.6142
ITEM: TIMESTEP
60550
ITEM: NUMBER OF ATOMS
2
ITEM: BOX BOUNDS pp pp pp
4.8399814874645788e+00 3.0166018512535604e+01
4.8399814874645788e+00 3.0166018512535604e+01
4.8399814874645788e+00 3.0166018512535604e+01
ITEM: ATOMS id type x y z fx fy fz
1556 4 20.5052 17.4043 8.52374 -115.006 -46.3988 -108.792
1555 3 21.0928 17.6298 23.8535 16.0789 0.449567 41.3682
ITEM: TIMESTEP
60560
ITEM: NUMBER OF ATOMS
2
ITEM: BOX BOUNDS pp pp pp
4.8396731476617951e+00 3.0166326852338393e+01
4.8396731476617951e+00 3.0166326852338393e+01
4.8396731476617951e+00 3.0166326852338393e+01
ITEM: ATOMS id type x y z fx fy fz
1556 4 20.4928 17.395 8.51063 -42.1809 -22.7703 9.17182
1555 3 21.097 17.6427 23.8458 17.0843 -0.149991 35.7474
ITEM: TIMESTEP
60570
ITEM: NUMBER OF ATOMS
2
ITEM: BOX BOUNDS pp pp pp
4.8393712920677334e+00 3.0166628707932460e+01
4.8393712920677334e+00 3.0166628707932460e+01
4.8393712920677334e+00 3.0166628707932460e+01
ITEM: ATOMS id type x y z fx fy fz
1556 4 20.4776 17.3835 8.49676 114.429 5.20932 -12.7806
1555 3 21.1023 17.6555 23.8406 17.5219 -0.796264 23.8151
ITEM: TIMESTEP
60580
ITEM: NUMBER OF ATOMS
2
ITEM: BOX BOUNDS pp pp pp
4.8390751630747619e+00 3.0166924836925432e+01
4.8390751630747619e+00 3.0166924836925432e+01
4.8390751630747619e+00 3.0166924836925432e+01
ITEM: ATOMS id type x y z fx fy fz
1556 4 20.4708 17.3725 8.48315 110.874 6.11125 84.7933
1555 3 21.109 17.6683 23.8371 17.3841 -1.44297 7.96255
ITEM: TIMESTEP
60590
ITEM: NUMBER OF ATOMS
2
ITEM: BOX BOUNDS pp pp pp
4.8387837292530111e+00 3.0167216270747183e+01
4.8387837292530111e+00 3.0167216270747183e+01
4.8387837292530111e+00 3.0167216270747183e+01
ITEM: ATOMS id type x y z fx fy fz
1556 4 20.4741 17.3614 8.47547 104.342 -20.8057 37.3359
1555 3 21.1169 17.681 23.8343 15.9744 -2.40583 1.54207
ITEM: TIMESTEP
60600
ITEM: NUMBER OF ATOMS
2
ITEM: BOX BOUNDS pp pp pp
4.8384976170020266e+00 3.0167502382998173e+01
4.8384976170020266e+00 3.0167502382998173e+01
4.8384976170020266e+00 3.0167502382998173e+01
ITEM: ATOMS id type x y z fx fy fz
1556 4 20.4856 17.3493 8.47152 10.3551 3.10432 19.17
1555 3 21.126 17.6936 23.8316 13.6308 -3.57439 1.50556
ITEM: TIMESTEP
60610
ITEM: NUMBER OF ATOMS
2
ITEM: BOX BOUNDS pp pp pp
4.8382180155650278e+00 3.0167781984435180e+01
4.8382180155650278e+00 3.0167781984435180e+01
4.8382180155650278e+00 3.0167781984435180e+01
ITEM: ATOMS id type x y z fx fy fz
1556 4 20.4983 17.3363 8.46921 -52.8188 -68.5283 -2.38606
1555 3 21.1361 17.7059 23.829 10.7119 -4.81389 4.62631
ITEM: TIMESTEP
60620
ITEM: NUMBER OF ATOMS
2
ITEM: BOX BOUNDS pp pp pp
4.8379452677922750e+00 3.0168054732207935e+01
4.8379452677922750e+00 3.0168054732207935e+01
4.8379452677922750e+00 3.0168054732207935e+01
ITEM: ATOMS id type x y z fx fy fz
1556 4 20.5063 17.3186 8.46623 -112.187 -28.7131 -51.0461
1555 3 21.1469 17.7178 23.8267 7.63308 -5.94289 6.86811
ITEM: TIMESTEP
60630
ITEM: NUMBER OF ATOMS
2
ITEM: BOX BOUNDS pp pp pp
4.8376783425850753e+00 3.0168321657415138e+01
4.8376783425850753e+00 3.0168321657415138e+01
4.8376783425850753e+00 3.0168321657415138e+01
ITEM: ATOMS id type x y z fx fy fz
1556 4 20.5046 17.2973 8.45981 -128.377 -41.6946 -15.3306
1555 3 21.1583 17.7293 23.8249 4.8823 -6.68325 3.06935
ITEM: TIMESTEP
60640
ITEM: NUMBER OF ATOMS
2
ITEM: BOX BOUNDS pp pp pp
4.8374151385059392e+00 3.0168584861494271e+01
4.8374151385059392e+00 3.0168584861494271e+01
4.8374151385059392e+00 3.0168584861494271e+01
ITEM: ATOMS id type x y z fx fy fz
1556 4 20.4928 17.2732 8.45115 -11.7637 -6.53337 -30.6769
1555 3 21.1701 17.7403 23.8234 2.43486 -7.07349 -3.80753
ITEM: TIMESTEP
60650
ITEM: NUMBER OF ATOMS
2
ITEM: BOX BOUNDS pp pp pp
4.8371530889024879e+00 3.0168846911097717e+01
4.8371530889024879e+00 3.0168846911097717e+01
4.8371530889024879e+00 3.0168846911097717e+01
ITEM: ATOMS id type x y z fx fy fz
1556 4 20.4795 17.2483 8.44149 76.0191 19.0752 110.38
1555 3 21.1821 17.7508 23.8215 0.27233 -7.15703 -11.5211
ITEM: TIMESTEP
60660
ITEM: NUMBER OF ATOMS
2
ITEM: BOX BOUNDS pp pp pp
4.8368897832451694e+00 3.0169110216755030e+01
4.8368897832451694e+00 3.0169110216755030e+01
4.8368897832451694e+00 3.0169110216755030e+01
ITEM: ATOMS id type x y z fx fy fz
1556 4 20.4732 17.2248 8.43925 169.317 39.5165 32.1444
1555 3 21.194 17.7608 23.8189 -2.71898 -7.77489 -3.92146
ITEM: TIMESTEP
60670
ITEM: NUMBER OF ATOMS
2
ITEM: BOX BOUNDS pp pp pp
4.8366262284880204e+00 3.0169373771512181e+01
4.8366262284880204e+00 3.0169373771512181e+01
4.8366262284880204e+00 3.0169373771512181e+01
ITEM: ATOMS id type x y z fx fy fz
1556 4 20.4798 17.2049 8.44136 55.0633 22.0891 67.0683
1555 3 21.2058 17.7702 23.816 -5.96297 -8.60851 10.6191
ITEM: TIMESTEP
60680
ITEM: NUMBER OF ATOMS
2
ITEM: BOX BOUNDS pp pp pp
4.8363667090869136e+00 3.0169633290913279e+01
4.8363667090869136e+00 3.0169633290913279e+01
4.8363667090869136e+00 3.0169633290913279e+01
ITEM: ATOMS id type x y z fx fy fz
1556 4 20.4918 17.1867 8.44777 -30.2038 -4.1798 -47.2158
1555 3 21.2171 17.779 23.8139 -9.33003 -9.66573 30.8915
ITEM: TIMESTEP
60690
ITEM: NUMBER OF ATOMS
2
ITEM: BOX BOUNDS pp pp pp
4.8361164778892114e+00 3.0169883522110986e+01
4.8361164778892114e+00 3.0169883522110986e+01
4.8361164778892114e+00 3.0169883522110986e+01
ITEM: ATOMS id type x y z fx fy fz
1556 4 20.501 17.1682 8.45102 -100.547 -16.0608 -67.7839
1555 3 21.2278 17.7871 23.8141 -11.6305 -10.0171 40.5985
ITEM: TIMESTEP
60700
ITEM: NUMBER OF ATOMS
2
ITEM: BOX BOUNDS pp pp pp
4.8358783867204664e+00 3.0170121613279733e+01
4.8358783867204664e+00 3.0170121613279733e+01
4.8358783867204664e+00 3.0170121613279733e+01
ITEM: ATOMS id type x y z fx fy fz
1556 4 20.5019 17.1488 8.44822 -103.935 11.8334 -69.6452
1555 3 21.2376 17.7944 23.817 -12.4385 -9.18937 33.5616
ITEM: TIMESTEP
60710
ITEM: NUMBER OF ATOMS
2
ITEM: BOX BOUNDS pp pp pp
4.8356519182300293e+00 3.0170348081770175e+01
4.8356519182300293e+00 3.0170348081770175e+01
4.8356519182300293e+00 3.0170348081770175e+01
ITEM: ATOMS id type x y z fx fy fz
1556 4 20.494 17.1296 8.43974 -47.7154 -21.8319 -26.2066
1555 3 21.2465 17.8012 23.8224 -11.8513 -7.11707 11.5936
ITEM: TIMESTEP
60720
ITEM: NUMBER OF ATOMS
2
ITEM: BOX BOUNDS pp pp pp
4.8354334141217397e+00 3.0170566585878476e+01
4.8354334141217397e+00 3.0170566585878476e+01
4.8354334141217397e+00 3.0170566585878476e+01
ITEM: ATOMS id type x y z fx fy fz
1556 4 20.4817 17.1095 8.42903 15.4047 37.3862 38.6323
1555 3 21.2546 17.8074 23.8285 -10.5652 -4.28653 -15.5585
ITEM: TIMESTEP
60730
ITEM: NUMBER OF ATOMS
2
ITEM: BOX BOUNDS pp pp pp
4.8352171715990249e+00 3.0170782828401194e+01
4.8352171715990249e+00 3.0170782828401194e+01
4.8352171715990249e+00 3.0170782828401194e+01
ITEM: ATOMS id type x y z fx fy fz
1556 4 20.4711 17.0917 8.42119 110.215 22.9315 55.9653
1555 3 21.2619 17.8132 23.8335 -9.66535 -1.51742 -35.1319
ITEM: TIMESTEP
60740
ITEM: NUMBER OF ATOMS
2
ITEM: BOX BOUNDS pp pp pp
4.8349975817077375e+00 3.0171002418292478e+01
4.8349975817077375e+00 3.0171002418292478e+01
4.8349975817077375e+00 3.0171002418292478e+01
ITEM: ATOMS id type x y z fx fy fz
1556 4 20.4692 17.0768 8.41905 106.212 42.516 131.724
1555 3 21.2685 17.819 23.8361 -9.93859 0.569433 -39.8433
ITEM: TIMESTEP
60750
ITEM: NUMBER OF ATOMS
2
ITEM: BOX BOUNDS pp pp pp
4.8347718114100520e+00 3.0171228188590163e+01
4.8347718114100520e+00 3.0171228188590163e+01
4.8347718114100520e+00 3.0171228188590163e+01
ITEM: ATOMS id type x y z fx fy fz
1556 4 20.4766 17.0643 8.42648 57.9567 -3.252 3.03419
1555 3 21.2743 17.8248 23.8359 -12.1672 1.16048 -21.6629
ITEM: TIMESTEP
60760
ITEM: NUMBER OF ATOMS
2
ITEM: BOX BOUNDS pp pp pp
4.8345415788173245e+00 3.0171458421182898e+01
4.8345415788173245e+00 3.0171458421182898e+01
4.8345415788173245e+00 3.0171458421182898e+01
ITEM: ATOMS id type x y z fx fy fz
1556 4 20.4879 17.0525 8.43549 -100.328 1.54594 -7.35351
1555 3 21.2793 17.8307 23.8342 -14.948 1.31645 2.1414
ITEM: TIMESTEP
60770
ITEM: NUMBER OF ATOMS
2
ITEM: BOX BOUNDS pp pp pp
4.8343104163265309e+00 3.0171689583673693e+01
4.8343104163265309e+00 3.0171689583673693e+01
4.8343104163265309e+00 3.0171689583673693e+01
ITEM: ATOMS id type x y z fx fy fz
1556 4 20.4915 17.0406 8.44268 -137.354 -13.405 -107.972
1555 3 21.2832 17.8367 23.8326 -17.585 1.50318 23.1942
ITEM: TIMESTEP
60780
ITEM: NUMBER OF ATOMS
2
ITEM: BOX BOUNDS pp pp pp
4.8340821581002942e+00 3.0171917841899926e+01
4.8340821581002942e+00 3.0171917841899926e+01
4.8340821581002942e+00 3.0171917841899926e+01
ITEM: ATOMS id type x y z fx fy fz
1556 4 20.4837 17.0271 8.44221 -78.1549 -30.0122 -54.9028
1555 3 21.2858 17.8428 23.8326 -18.9657 2.70756 27.7521
ITEM: TIMESTEP
60790
ITEM: NUMBER OF ATOMS
2
ITEM: BOX BOUNDS pp pp pp
4.8338593080378001e+00 3.0172140691962419e+01
4.8338593080378001e+00 3.0172140691962419e+01
4.8338593080378001e+00 3.0172140691962419e+01
ITEM: ATOMS id type x y z fx fy fz
1556 4 20.4693 17.0124 8.43624 17.5047 60.632 -23.2025
1555 3 21.287 17.8491 23.8346 -19.1689 4.67389 18.5966
ITEM: TIMESTEP
60800
ITEM: NUMBER OF ATOMS
2
ITEM: BOX BOUNDS pp pp pp
4.8336418332979605e+00 3.0172358166702253e+01
4.8336418332979605e+00 3.0172358166702253e+01
4.8336418332979605e+00 3.0172358166702253e+01
ITEM: ATOMS id type x y z fx fy fz
1556 4 20.4563 17.0011 8.42862 99.4635 -8.35529 30.934
1555 3 21.2868 17.8558 23.8378 -18.5454 6.79401 2.63876
ITEM: TIMESTEP
60810
ITEM: NUMBER OF ATOMS
2
ITEM: BOX BOUNDS pp pp pp
4.8334275294685813e+00 3.0172572470531627e+01
4.8334275294685813e+00 3.0172572470531627e+01
4.8334275294685813e+00 3.0172572470531627e+01
ITEM: ATOMS id type x y z fx fy fz