ITEM: TIMESTEP
60000
ITEM: NUMBER OF ATOMS
2
ITEM: BOX BOUNDS pp pp pp
4.8473571128758799e+00 3.0158642887124227e+01
4.8473571128758799e+00 3.0158642887124227e+01
4.8473571128758799e+00 3.0158642887124227e+01
ITEM: ATOMS id type x y z fx fy fz
1556 4 23.6134 17.3591 7.4253 37.2874 -1.84633 3.76868
1555 3 15.5012 16.996 26.8707 21.913 -1.37804 10.3263
ITEM: TIMESTEP
60010
ITEM: NUMBER OF ATOMS
2
ITEM: BOX BOUNDS pp pp pp
4.8480317316882147e+00 3.0157968268311883e+01
4.8480317316882147e+00 3.0157968268311883e+01
4.8480317316882147e+00 3.0157968268311883e+01
ITEM: ATOMS id type x y z fx fy fz
1556 4 23.609 17.3555 7.41405 67.5512 -47.2559 61.5898
1555 3 15.5092 16.9919 26.8595 4.03613 -1.1703 -1.31318
ITEM: TIMESTEP
60020
ITEM: NUMBER OF ATOMS
2
ITEM: BOX BOUNDS pp pp pp
4.8487073052867551e+00 3.0157292694713348e+01
4.8487073052867551e+00 3.0157292694713348e+01
4.8487073052867551e+00 3.0157292694713348e+01
ITEM: ATOMS id type x y z fx fy fz
1556 4 23.6108 17.3485 7.40715 82.625 -27.3194 -0.168339
1555 3 15.5176 16.9877 26.8482 -2.10754 -0.271282 -4.21274
ITEM: TIMESTEP
60030
ITEM: NUMBER OF ATOMS
2
ITEM: BOX BOUNDS pp pp pp
4.8493846376759624e+00 3.0156615362324139e+01
4.8493846376759624e+00 3.0156615362324139e+01
4.8493846376759624e+00 3.0156615362324139e+01
ITEM: ATOMS id type x y z fx fy fz
1556 4 23.6191 17.3393 7.4012 -14.2526 5.29809 22.2462
1555 3 15.5259 16.9835 26.8366 1.50375 1.06804 0.174123
ITEM: TIMESTEP
60040
ITEM: NUMBER OF ATOMS
2
ITEM: BOX BOUNDS pp pp pp
4.8500663214438777e+00 3.0155933678556217e+01
4.8500663214438777e+00 3.0155933678556217e+01
4.8500663214438777e+00 3.0155933678556217e+01
ITEM: ATOMS id type x y z fx fy fz
1556 4 23.6269 17.3302 7.39643 -42.328 22.8366 -42.5743
1555 3 15.5344 16.9793 26.8251 5.49066 2.3049 4.98672
ITEM: TIMESTEP
60050
ITEM: NUMBER OF ATOMS
2
ITEM: BOX BOUNDS pp pp pp
4.8507540479155651e+00 3.0155245952084528e+01
4.8507540479155651e+00 3.0155245952084528e+01
4.8507540479155651e+00 3.0155245952084528e+01
ITEM: ATOMS id type x y z fx fy fz
1556 4 23.6308 17.3232 7.38848 -73.7743 34.763 -43.4833
1555 3 15.5431 16.9754 26.8139 0.948908 2.96104 3.62606
ITEM: TIMESTEP
60060
ITEM: NUMBER OF ATOMS
2
ITEM: BOX BOUNDS pp pp pp
4.8514466809049299e+00 3.0154553319095164e+01
4.8514466809049299e+00 3.0154553319095164e+01
4.8514466809049299e+00 3.0154553319095164e+01
ITEM: ATOMS id type x y z fx fy fz
1556 4 23.6285 17.319 7.3769 -48.0505 25.4662 -13.2795
1555 3 15.5519 16.9716 26.8029 -14.9638 2.83071 -6.13885
ITEM: TIMESTEP
60070
ITEM: NUMBER OF ATOMS
2
ITEM: BOX BOUNDS pp pp pp
4.8521400396822774e+00 3.0153859960317817e+01
4.8521400396822774e+00 3.0153859960317817e+01
4.8521400396822774e+00 3.0153859960317817e+01
ITEM: ATOMS id type x y z fx fy fz
1556 4 23.6225 17.3172 7.36413 25.0527 14.4126 19.8589
1555 3 15.5595 16.968 26.7914 -34.5247 2.17834 -18.8725
ITEM: TIMESTEP
60080
ITEM: NUMBER OF ATOMS
2
ITEM: BOX BOUNDS pp pp pp
4.8528285351215938e+00 3.0153171464878504e+01
4.8528285351215938e+00 3.0153171464878504e+01
4.8528285351215938e+00 3.0153171464878504e+01
ITEM: ATOMS id type x y z fx fy fz
1556 4 23.6185 17.3162 7.35321 84.3851 -23.9573 51.8507
1555 3 15.5647 16.9646 26.7786 -44.8919 1.54781 -25.3358
ITEM: TIMESTEP
60090
ITEM: NUMBER OF ATOMS
2
ITEM: BOX BOUNDS pp pp pp
4.8535081657786971e+00 3.0152491834221394e+01
4.8535081657786971e+00 3.0152491834221394e+01
4.8535081657786971e+00 3.0152491834221394e+01
ITEM: ATOMS id type x y z fx fy fz
1556 4 23.6217 17.3135 7.34661 75.3798 -23.7839 57.1765
1555 3 15.5668 16.9613 26.764 -35.8074 1.4555 -18.0731
ITEM: TIMESTEP
60100
ITEM: NUMBER OF ATOMS
2
ITEM: BOX BOUNDS pp pp pp
4.8541795259019516e+00 3.0151820474098145e+01
4.8541795259019516e+00 3.0151820474098145e+01
4.8541795259019516e+00 3.0151820474098145e+01
ITEM: ATOMS id type x y z fx fy fz
1556 4 23.6312 17.3091 7.34473 3.4339 17.1603 10.0377
1555 3 15.5663 16.9581 26.7482 -9.64526 1.88285 1.19015
ITEM: TIMESTEP
60110
ITEM: NUMBER OF ATOMS
2
ITEM: BOX BOUNDS pp pp pp
4.8548478787586919e+00 3.0151152121241402e+01
4.8548478787586919e+00 3.0151152121241402e+01
4.8548478787586919e+00 3.0151152121241402e+01
ITEM: ATOMS id type x y z fx fy fz
1556 4 23.6409 17.3052 7.34365 -66.9213 0.816486 -54.5198
1555 3 15.5651 16.9551 26.7325 18.2715 2.24465 21.2948
ITEM: TIMESTEP
60120
ITEM: NUMBER OF ATOMS
2
ITEM: BOX BOUNDS pp pp pp
4.8555199048177258e+00 3.0150480095182374e+01
4.8555199048177258e+00 3.0150480095182374e+01
4.8555199048177258e+00 3.0150480095182374e+01
ITEM: ATOMS id type x y z fx fy fz
1556 4 23.6455 17.3025 7.33876 -88.6681 40.2449 -16.9225
1555 3 15.5652 16.9522 26.7183 32.3224 1.963 30.8664
ITEM: TIMESTEP
60130
ITEM: NUMBER OF ATOMS
2
ITEM: BOX BOUNDS pp pp pp
4.8562003130342557e+00 3.0149799686965846e+01
4.8562003130342557e+00 3.0149799686965846e+01
4.8562003130342557e+00 3.0149799686965846e+01
ITEM: ATOMS id type x y z fx fy fz
1556 4 23.6426 17.3021 7.33196 -39.8214 -4.958 -22.5841
1555 3 15.5676 16.9495 26.7063 29.4789 0.996202 27.764
ITEM: TIMESTEP
60140
ITEM: NUMBER OF ATOMS
2
ITEM: BOX BOUNDS pp pp pp
4.8568903739198124e+00 3.0149109626080289e+01
4.8568903739198124e+00 3.0149109626080289e+01
4.8568903739198124e+00 3.0149109626080289e+01
ITEM: ATOMS id type x y z fx fy fz
1556 4 23.6364 17.3017 7.32371 22.1117 -21.4854 26.0592
1555 3 15.572 16.9468 26.6962 15.7236 -0.34439 16.4073
ITEM: TIMESTEP
60150
ITEM: NUMBER OF ATOMS
2
ITEM: BOX BOUNDS pp pp pp
4.8575885437155470e+00 3.0148411456284560e+01
4.8575885437155470e+00 3.0148411456284560e+01
4.8575885437155470e+00 3.0148411456284560e+01
ITEM: ATOMS id type x y z fx fy fz
1556 4 23.6321 17.2997 7.31775 64.1012 -6.98465 69.6232
1555 3 15.5776 16.9441 26.6873 3.3589 -1.44631 5.87847
ITEM: TIMESTEP
60160
ITEM: NUMBER OF ATOMS
2
ITEM: BOX BOUNDS pp pp pp
4.8582928749588667e+00 3.0147707125041240e+01
4.8582928749588667e+00 3.0147707125041240e+01
4.8582928749588667e+00 3.0147707125041240e+01
ITEM: ATOMS id type x y z fx fy fz
1556 4 23.6328 17.2963 7.31729 41.3049 -61.1489 40.0918
1555 3 15.5835 16.9413 26.6789 1.60481 -1.80136 3.01543
ITEM: TIMESTEP
60170
ITEM: NUMBER OF ATOMS
2
ITEM: BOX BOUNDS pp pp pp
4.8590030080326621e+00 3.0146996991967434e+01
4.8590030080326621e+00 3.0146996991967434e+01
4.8590030080326621e+00 3.0146996991967434e+01
ITEM: ATOMS id type x y z fx fy fz
1556 4 23.6375 17.289 7.32049 23.3168 29.1289 15.0901
1555 3 15.5895 16.9384 26.6708 7.66477 -1.4446 5.82061
ITEM: TIMESTEP
60180
ITEM: NUMBER OF ATOMS
2
ITEM: BOX BOUNDS pp pp pp
4.8597197733439046e+00 3.0146280226656192e+01
4.8597197733439046e+00 3.0146280226656192e+01
4.8597197733439046e+00 3.0146280226656192e+01
ITEM: ATOMS id type x y z fx fy fz
1556 4 23.6435 17.2824 7.3252 -86.345 -23.7499 -13.8319
1555 3 15.5961 16.9353 26.663 15.5416 -0.496922 9.92288
ITEM: TIMESTEP
60190
ITEM: NUMBER OF ATOMS
2
ITEM: BOX BOUNDS pp pp pp
4.8604436177129298e+00 3.0145556382287175e+01
4.8604436177129298e+00 3.0145556382287175e+01
4.8604436177129298e+00 3.0145556382287175e+01
ITEM: ATOMS id type x y z fx fy fz
1556 4 23.6435 17.2757 7.3285 -77.9332 70.2618 -69.8488
1555 3 15.6038 16.9323 26.656 12.0911 0.650979 5.63867
ITEM: TIMESTEP
60200
ITEM: NUMBER OF ATOMS
2
ITEM: BOX BOUNDS pp pp pp
4.8611726995977360e+00 3.0144827300402369e+01
4.8611726995977360e+00 3.0144827300402369e+01
4.8611726995977360e+00 3.0144827300402369e+01
ITEM: ATOMS id type x y z fx fy fz
1556 4 23.6362 17.2725 7.32691 -71.9232 -18.4026 -14.5985
1555 3 15.6123 16.9293 26.6492 -6.72382 2.03511 -10.0486
ITEM: TIMESTEP
60210
ITEM: NUMBER OF ATOMS
2
ITEM: BOX BOUNDS pp pp pp
4.8619028714936281e+00 3.0144097128506473e+01
4.8619028714936281e+00 3.0144097128506473e+01
4.8619028714936281e+00 3.0144097128506473e+01
ITEM: ATOMS id type x y z fx fy fz
1556 4 23.6242 17.2696 7.32393 51.4653 16.2302 30.6562
1555 3 15.6202 16.9264 26.6417 -31.4762 4.0964 -30.1246
ITEM: TIMESTEP
60220
ITEM: NUMBER OF ATOMS
2
ITEM: BOX BOUNDS pp pp pp
4.8626297062081143e+00 3.0143370293791996e+01
4.8626297062081143e+00 3.0143370293791996e+01
4.8626297062081143e+00 3.0143370293791996e+01
ITEM: ATOMS id type x y z fx fy fz
1556 4 23.6158 17.2669 7.32367 76.6727 -37.4505 57.9694
1555 3 15.6259 16.9238 26.6321 -43.797 7.36113 -40.7862
ITEM: TIMESTEP
60230
ITEM: NUMBER OF ATOMS
2
ITEM: BOX BOUNDS pp pp pp
4.8633517255245646e+00 3.0142648274475548e+01
4.8633517255245646e+00 3.0142648274475548e+01
4.8633517255245646e+00 3.0142648274475548e+01
ITEM: ATOMS id type x y z fx fy fz
1556 4 23.6138 17.2616 7.32823 55.1853 -15.4215 51.777
1555 3 15.6286 16.9218 26.6196 -36.1106 11.55 -36.1419
ITEM: TIMESTEP
60240
ITEM: NUMBER OF ATOMS
2
ITEM: BOX BOUNDS pp pp pp
4.8640718164948620e+00 3.0141928183505250e+01
4.8640718164948620e+00 3.0141928183505250e+01
4.8640718164948620e+00 3.0141928183505250e+01
ITEM: ATOMS id type x y z fx fy fz
1556 4 23.6164 17.2551 7.33701 -2.85489 15.4302 15.8707
1555 3 15.6287 16.9207 26.6046 -12.1792 15.7683 -18.7679
ITEM: TIMESTEP
60250
ITEM: NUMBER OF ATOMS
2
ITEM: BOX BOUNDS pp pp pp
4.8647958775845836e+00 3.0141204122415530e+01
4.8647958775845836e+00 3.0141204122415530e+01
4.8647958775845836e+00 3.0141204122415530e+01
ITEM: ATOMS id type x y z fx fy fz
1556 4 23.6183 17.2494 7.34713 -83.5395 -5.42729 -24.7601
1555 3 15.6279 16.9206 26.5882 15.3457 18.9759 1.99354
ITEM: TIMESTEP
60260
ITEM: NUMBER OF ATOMS
2
ITEM: BOX BOUNDS pp pp pp
4.8655297063514737e+00 3.0140470293648644e+01
4.8655297063514737e+00 3.0140470293648644e+01
4.8655297063514737e+00 3.0140470293648644e+01
ITEM: ATOMS id type x y z fx fy fz
1556 4 23.6137 17.2442 7.3551 -89.1872 52.8192 -52.7937
1555 3 15.6282 16.922 26.5719 31.7018 20.4117 15.0284
ITEM: TIMESTEP
60270
ITEM: NUMBER OF ATOMS
2
ITEM: BOX BOUNDS pp pp pp
4.8662759959713462e+00 3.0139724004028768e+01
4.8662759959713462e+00 3.0139724004028768e+01
4.8662759959713462e+00 3.0139724004028768e+01
ITEM: ATOMS id type x y z fx fy fz
1556 4 23.6012 17.242 7.35916 -75.6989 -25.8111 -14.6662
1555 3 15.6308 16.9248 26.5566 31.1758 19.9161 15.8747
ITEM: TIMESTEP
60280
ITEM: NUMBER OF ATOMS
2
ITEM: BOX BOUNDS pp pp pp
4.8670331738914250e+00 3.0138966826108700e+01
4.8670331738914250e+00 3.0138966826108700e+01
4.8670331738914250e+00 3.0138966826108700e+01
ITEM: ATOMS id type x y z fx fy fz
1556 4 23.5833 17.239 7.36175 34.4568 6.93285 1.59643
1555 3 15.6355 16.9291 26.5424 18.9961 17.7672 8.32082
ITEM: TIMESTEP
60290
ITEM: NUMBER OF ATOMS
2
ITEM: BOX BOUNDS pp pp pp
4.8677966430719550e+00 3.0138203356928162e+01
4.8677966430719550e+00 3.0138203356928162e+01
4.8677966430719550e+00 3.0138203356928162e+01
ITEM: ATOMS id type x y z fx fy fz
1556 4 23.5679 17.2351 7.36481 83.1242 -61.8227 36.4768
1555 3 15.6416 16.9346 26.5289 8.52413 14.6495 2.4294
ITEM: TIMESTEP
60300
ITEM: NUMBER OF ATOMS
2
ITEM: BOX BOUNDS pp pp pp
4.8685622009292917e+00 3.0137437799070817e+01
4.8685622009292917e+00 3.0137437799070817e+01
4.8685622009292917e+00 3.0137437799070817e+01
ITEM: ATOMS id type x y z fx fy fz
1556 4 23.5593 17.2266 7.37111 54.2796 -35.3372 58.8455
1555 3 15.6483 16.9412 26.5155 8.66529 11.1922 5.00505
ITEM: TIMESTEP
60310
ITEM: NUMBER OF ATOMS
2
ITEM: BOX BOUNDS pp pp pp
4.8693289503939940e+00 3.0136671049606111e+01
4.8693289503939940e+00 3.0136671049606111e+01
4.8693289503939940e+00 3.0136671049606111e+01
ITEM: ATOMS id type x y z fx fy fz
1556 4 23.5555 17.2157 7.38131 -2.12934 15.8339 -39.633
1555 3 15.6558 16.9486 26.5026 17.2509 7.71982 14.3234
ITEM: TIMESTEP
60320
ITEM: NUMBER OF ATOMS
2
ITEM: BOX BOUNDS pp pp pp
4.8700986147790051e+00 3.0135901385221104e+01
4.8700986147790051e+00 3.0135901385221104e+01
4.8700986147790051e+00 3.0135901385221104e+01
ITEM: ATOMS id type x y z fx fy fz
1556 4 23.5509 17.2051 7.38924 -93.0815 16.7376 -22.7604
1555 3 15.6645 16.9566 26.4907 19.8506 4.09257 18.9856
ITEM: TIMESTEP
60330
ITEM: NUMBER OF ATOMS
2
ITEM: BOX BOUNDS pp pp pp
4.8708719384943890e+00 3.0135128061505725e+01
4.8708719384943890e+00 3.0135128061505725e+01
4.8708719384943890e+00 3.0135128061505725e+01
ITEM: ATOMS id type x y z fx fy fz
1556 4 23.5392 17.1969 7.39492 -78.6705 68.411 -15.9435
1555 3 15.6746 16.9649 26.4801 8.2087 0.27763 12.2655
ITEM: TIMESTEP
60340
ITEM: NUMBER OF ATOMS
2
ITEM: BOX BOUNDS pp pp pp
4.8716468067876786e+00 3.0134353193212434e+01
4.8716468067876786e+00 3.0134353193212434e+01
4.8716468067876786e+00 3.0134353193212434e+01
ITEM: ATOMS id type x y z fx fy fz
1556 4 23.5208 17.1935 7.39893 -1.85411 7.95581 -32.5701
1555 3 15.6851 16.9732 26.4703 -14.789 -3.54153 -3.85086
ITEM: TIMESTEP
60350
ITEM: NUMBER OF ATOMS
2
ITEM: BOX BOUNDS pp pp pp
4.8724186618855168e+00 3.0133581338114602e+01
4.8724186618855168e+00 3.0133581338114602e+01
4.8724186618855168e+00 3.0133581338114602e+01
ITEM: ATOMS id type x y z fx fy fz
1556 4 23.5021 17.192 7.4011 45.6333 54.3943 60.373
1555 3 15.6946 16.9812 26.4603 -38.4478 -7.04323 -21.0495
ITEM: TIMESTEP
60360
ITEM: NUMBER OF ATOMS
2
ITEM: BOX BOUNDS pp pp pp
4.8731823622605219e+00 3.0132817637739603e+01
4.8731823622605219e+00 3.0132817637739603e+01
4.8731823622605219e+00 3.0132817637739603e+01
ITEM: ATOMS id type x y z fx fy fz
1556 4 23.4876 17.1938 7.40769 82.9834 -25.7625 44.3113
1555 3 15.7014 16.9887 26.4488 -48.0242 -9.80615 -27.5408
ITEM: TIMESTEP
60370
ITEM: NUMBER OF ATOMS
2
ITEM: BOX BOUNDS pp pp pp
4.8739350571863742e+00 3.0132064942813756e+01
4.8739350571863742e+00 3.0132064942813756e+01
4.8739350571863742e+00 3.0132064942813756e+01
ITEM: ATOMS id type x y z fx fy fz
1556 4 23.4804 17.1948 7.41816 97.2101 36.3676 18.5341
1555 3 15.7048 16.9956 26.4354 -38.9902 -11.6601 -19.4629
ITEM: TIMESTEP
60380
ITEM: NUMBER OF ATOMS
2
ITEM: BOX BOUNDS pp pp pp
4.8746775440500674e+00 3.0131322455950070e+01
4.8746775440500674e+00 3.0131322455950070e+01
4.8746775440500674e+00 3.0131322455950070e+01
ITEM: ATOMS id type x y z fx fy fz
1556 4 23.4808 17.1979 7.43081 -11.3412 0.115237 33.9806
1555 3 15.7054 17.0015 26.4206 -14.3878 -12.6721 0.970367
ITEM: TIMESTEP
60390
ITEM: NUMBER OF ATOMS
2
ITEM: BOX BOUNDS pp pp pp
4.8754136488245479e+00 3.0130586351175598e+01
4.8754136488245479e+00 3.0130586351175598e+01
4.8754136488245479e+00 3.0130586351175598e+01
ITEM: ATOMS id type x y z fx fy fz
1556 4 23.481 17.2017 7.44528 -34.5586 46.178 -58.0385
1555 3 15.705 17.0066 26.406 12.4805 -13.1893 23.1593
ITEM: TIMESTEP
60400
ITEM: NUMBER OF ATOMS
2
ITEM: BOX BOUNDS pp pp pp
4.8761479185066854e+00 3.0129852081493457e+01
4.8761479185066854e+00 3.0129852081493457e+01
4.8761479185066854e+00 3.0129852081493457e+01
ITEM: ATOMS id type x y z fx fy fz
1556 4 23.4772 17.209 7.45599 -101.98 14.7088 -14.5503
1555 3 15.7054 17.0107 26.393 27.8313 -13.5771 36.0124
ITEM: TIMESTEP
60410
ITEM: NUMBER OF ATOMS
2
ITEM: BOX BOUNDS pp pp pp
4.8768833440863837e+00 3.0129116655913759e+01
4.8768833440863837e+00 3.0129116655913759e+01
4.8768833440863837e+00 3.0129116655913759e+01
ITEM: ATOMS id type x y z fx fy fz
1556 4 23.4662 17.2184 7.46407 20.2887 20.063 -62.0488
1555 3 15.7078 17.0138 26.3825 26.4788 -14.0186 35.3639
ITEM: TIMESTEP
60420
ITEM: NUMBER OF ATOMS
2
ITEM: BOX BOUNDS pp pp pp
4.8776205121180194e+00 3.0128379487882121e+01
4.8776205121180194e+00 3.0128379487882121e+01
4.8776205121180194e+00 3.0128379487882121e+01
ITEM: ATOMS id type x y z fx fy fz
1556 4 23.455 17.2288 7.46854 14.9789 -38.7464 57.1163
1555 3 15.712 17.0158 26.3745 16.3186 -14.3682 27.6553
ITEM: TIMESTEP
60430
ITEM: NUMBER OF ATOMS
2
ITEM: BOX BOUNDS pp pp pp
4.8783585704235684e+00 3.0127641429576574e+01
4.8783585704235684e+00 3.0127641429576574e+01
4.8783585704235684e+00 3.0127641429576574e+01
ITEM: ATOMS id type x y z fx fy fz
1556 4 23.4464 17.2367 7.47518 113.04 -32.2375 -62.2012
1555 3 15.7175 17.0169 26.3686 7.68283 -14.3852 21.4452
ITEM: TIMESTEP
60440
ITEM: NUMBER OF ATOMS
2
ITEM: BOX BOUNDS pp pp pp
4.8790972333300271e+00 3.0126902766670113e+01
4.8790972333300271e+00 3.0126902766670113e+01
4.8790972333300271e+00 3.0126902766670113e+01
ITEM: ATOMS id type x y z fx fy fz
1556 4 23.4458 17.2417 7.47901 41.679 -5.11148 40.2909
1555 3 15.7235 17.0169 26.3643 3.41849 -13.9795 19.0859
ITEM: TIMESTEP
60450
ITEM: NUMBER OF ATOMS
2
ITEM: BOX BOUNDS pp pp pp
4.8798372345677592e+00 3.0126162765432376e+01
4.8798372345677592e+00 3.0126162765432376e+01
4.8798372345677592e+00 3.0126162765432376e+01
ITEM: ATOMS id type x y z fx fy fz
1556 4 23.4496 17.2462 7.48419 10.6704 -11.8983 -42.0648
1555 3 15.7298 17.0158 26.3614 4.14361 -13.1097 21.0413
ITEM: TIMESTEP
60460
ITEM: NUMBER OF ATOMS
2
ITEM: BOX BOUNDS pp pp pp
4.8805797818080183e+00 3.0125420218192119e+01
4.8805797818080183e+00 3.0125420218192119e+01
4.8805797818080183e+00 3.0125420218192119e+01
ITEM: ATOMS id type x y z fx fy fz
1556 4 23.4542 17.2499 7.48665 -29.5745 32.728 -50.6938
1555 3 15.7364 17.0139 26.36 1.67651 -12.0159 20.3731
ITEM: TIMESTEP
60470
ITEM: NUMBER OF ATOMS
2
ITEM: BOX BOUNDS pp pp pp
4.8813244825217836e+00 3.0124675517478359e+01
4.8813244825217836e+00 3.0124675517478359e+01
4.8813244825217836e+00 3.0124675517478359e+01
ITEM: ATOMS id type x y z fx fy fz
1556 4 23.4564 17.2561 7.48513 -67.1746 45.6481 -10.3487
1555 3 15.743 17.011 26.36 -8.35285 -10.841 13.2479
ITEM: TIMESTEP
60480
ITEM: NUMBER OF ATOMS
2
ITEM: BOX BOUNDS pp pp pp
4.8820683811961061e+00 3.0123931618804036e+01
4.8820683811961061e+00 3.0123931618804036e+01
4.8820683811961061e+00 3.0123931618804036e+01
ITEM: ATOMS id type x y z fx fy fz
1556 4 23.4534 17.266 7.48162 -26.0617 17.1313 -62.5344
1555 3 15.749 17.0074 26.361 -25.6928 -9.66016 -0.345598
ITEM: TIMESTEP
60490
ITEM: NUMBER OF ATOMS
2
ITEM: BOX BOUNDS pp pp pp
4.8828063581920116e+00 3.0123193641808129e+01
4.8828063581920116e+00 3.0123193641808129e+01
4.8828063581920116e+00 3.0123193641808129e+01
ITEM: ATOMS id type x y z fx fy fz
1556 4 23.4476 17.2777 7.47474 2.49528 5.97725 82.2702
1555 3 15.7531 17.003 26.3619 -46.2332 -8.48912 -17.2288
ITEM: TIMESTEP
60500
ITEM: NUMBER OF ATOMS
2
ITEM: BOX BOUNDS pp pp pp
4.8835325647389833e+00 3.0122467435261157e+01
4.8835325647389833e+00 3.0122467435261157e+01
4.8835325647389833e+00 3.0122467435261157e+01
ITEM: ATOMS id type x y z fx fy fz
1556 4 23.4428 17.2899 7.47174 113.601 -26.8605 -48.387
1555 3 15.7539 16.9981 26.3616 -55.4927 -6.95135 -25.6099
ITEM: TIMESTEP
60510
ITEM: NUMBER OF ATOMS
2
ITEM: BOX BOUNDS pp pp pp
4.8842436336707991e+00 3.0121756366329340e+01
4.8842436336707991e+00 3.0121756366329340e+01
4.8842436336707991e+00 3.0121756366329340e+01
ITEM: ATOMS id type x y z fx fy fz
1556 4 23.4457 17.3002 7.46837 47.0111 -16.0625 132.251
1555 3 15.7508 16.9926 26.3596 -48.1208 -4.90638 -21.1599
ITEM: TIMESTEP
60520
ITEM: NUMBER OF ATOMS
2
ITEM: BOX BOUNDS pp pp pp
4.8849405616276727e+00 3.0121059438372470e+01
4.8849405616276727e+00 3.0121059438372470e+01
4.8849405616276727e+00 3.0121059438372470e+01
ITEM: ATOMS id type x y z fx fy fz
1556 4 23.4535 17.3091 7.47204 27.5024 -16.5039 -64.886
1555 3 15.7443 16.9868 26.3561 -21.6172 -2.28781 -1.87311
ITEM: TIMESTEP
60530
ITEM: NUMBER OF ATOMS
2
ITEM: BOX BOUNDS pp pp pp
4.8856288285793443e+00 3.0120371171420796e+01
4.8856288285793443e+00 3.0120371171420796e+01
4.8856288285793443e+00 3.0120371171420796e+01
ITEM: ATOMS id type x y z fx fy fz
1556 4 23.4628 17.3171 7.47323 -52.8203 39.4101 14.9966
1555 3 15.7362 16.9808 26.3525 6.92288 0.165746 18.3447
ITEM: TIMESTEP
60540
ITEM: NUMBER OF ATOMS
2
ITEM: BOX BOUNDS pp pp pp
4.8863145527615881e+00 3.0119685447238549e+01
4.8863145527615881e+00 3.0119685447238549e+01
4.8863145527615881e+00 3.0119685447238549e+01
ITEM: ATOMS id type x y z fx fy fz
1556 4 23.4679 17.328 7.47403 -78.0431 21.1649 -40.6926
1555 3 15.7286 16.9748 26.3502 28.6535 2.039 32.5917
ITEM: TIMESTEP
60550
ITEM: NUMBER OF ATOMS
2
ITEM: BOX BOUNDS pp pp pp
4.8870019716039259e+00 3.0118998028396213e+01
4.8870019716039259e+00 3.0118998028396213e+01
4.8870019716039259e+00 3.0118998028396213e+01
ITEM: ATOMS id type x y z fx fy fz
1556 4 23.4666 17.3407 7.47185 -50.9668 -3.56076 -46.1624
1555 3 15.723 16.969 26.3502 35.1485 2.88084 34.3221
ITEM: TIMESTEP
60560
ITEM: NUMBER OF ATOMS
2
ITEM: BOX BOUNDS pp pp pp
4.8876914963657345e+00 3.0118308503634406e+01
4.8876914963657345e+00 3.0118308503634406e+01
4.8876914963657345e+00 3.0118308503634406e+01
ITEM: ATOMS id type x y z fx fy fz
1556 4 23.4613 17.3531 7.46666 6.02126 1.48149 35.813
1555 3 15.7198 16.9634 26.3526 27.914 2.64573 24.9696
ITEM: TIMESTEP
60570
ITEM: NUMBER OF ATOMS
2
ITEM: BOX BOUNDS pp pp pp
4.8883798225501920e+00 3.0117620177449950e+01
4.8883798225501920e+00 3.0117620177449950e+01
4.8883798225501920e+00 3.0117620177449950e+01
ITEM: ATOMS id type x y z fx fy fz
1556 4 23.4568 17.3653 7.46268 72.1549 -47.4188 -34.4835
1555 3 15.7187 16.958 26.3568 18.0904 1.82885 13.6957
ITEM: TIMESTEP
60580
ITEM: NUMBER OF ATOMS
2
ITEM: BOX BOUNDS pp pp pp
4.8890622134310409e+00 3.0116937786569100e+01
4.8890622134310409e+00 3.0116937786569100e+01
4.8890622134310409e+00 3.0116937786569100e+01
ITEM: ATOMS id type x y z fx fy fz
1556 4 23.4576 17.3736 7.45849 53.6254 -47.0024 109.672
1555 3 15.7189 16.9527 26.3621 11.0977 0.73229 4.89974
ITEM: TIMESTEP
60590
ITEM: NUMBER OF ATOMS
2
ITEM: BOX BOUNDS pp pp pp
4.8897345778438694e+00 3.0116265422156275e+01
4.8897345778438694e+00 3.0116265422156275e+01
4.8897345778438694e+00 3.0116265422156275e+01
ITEM: ATOMS id type x y z fx fy fz
1556 4 23.4635 17.3783 7.46002 58.0087 -11.1839 -65.9535
1555 3 15.72 16.9474 26.3677 13.67 -0.176636 4.13437
ITEM: TIMESTEP
60600
ITEM: NUMBER OF ATOMS
2
ITEM: BOX BOUNDS pp pp pp
4.8903948969080808e+00 3.0115605103092065e+01
4.8903948969080808e+00 3.0115605103092065e+01
4.8903948969080808e+00 3.0115605103092065e+01
ITEM: ATOMS id type x y z fx fy fz
1556 4 23.4729 17.3819 7.45936 -71.0944 19.6954 66.7502
1555 3 15.7221 16.9422 26.3737 16.1228 -1.30272 3.56693
ITEM: TIMESTEP
60610
ITEM: NUMBER OF ATOMS
2
ITEM: BOX BOUNDS pp pp pp
4.8910417274536115e+00 3.0114958272546541e+01
4.8910417274536115e+00 3.0114958272546541e+01
4.8910417274536115e+00 3.0114958272546541e+01
ITEM: ATOMS id type x y z fx fy fz
1556 4 23.4769 17.3872 7.46112 -78.2717 24.9613 -92.8173
1555 3 15.7253 16.9369 26.3799 12.4834 -2.84861 -1.53718
ITEM: TIMESTEP
60620
ITEM: NUMBER OF ATOMS
2
ITEM: BOX BOUNDS pp pp pp
4.8916730867121476e+00 3.0114326913288004e+01
4.8916730867121476e+00 3.0114326913288004e+01
4.8916730867121476e+00 3.0114326913288004e+01
ITEM: ATOMS id type x y z fx fy fz
1556 4 23.4738 17.3951 7.45798 -52.743 40.43 61.2097
1555 3 15.7293 16.9313 26.3859 -5.57761 -5.15133 -17.9004
ITEM: TIMESTEP
60630
ITEM: NUMBER OF ATOMS
2
ITEM: BOX BOUNDS pp pp pp
4.8922856741451728e+00 3.0113714325854968e+01
4.8922856741451728e+00 3.0113714325854968e+01
4.8922856741451728e+00 3.0113714325854968e+01
ITEM: ATOMS id type x y z fx fy fz
1556 4 23.4667 17.4059 7.45763 44.4641 -2.95821 -7.72745
1555 3 15.7329 16.9254 26.3907 -24.2727 -7.2204 -34.2822
ITEM: TIMESTEP
60640
ITEM: NUMBER OF ATOMS
2
ITEM: BOX BOUNDS pp pp pp
4.8928767837624658e+00 3.0113123216237678e+01
4.8928767837624658e+00 3.0113123216237678e+01
4.8928767837624658e+00 3.0113123216237678e+01
ITEM: ATOMS id type x y z fx fy fz
1556 4 23.4627 17.4165 7.45845 56.0157 -50.0818 80.7834
1555 3 15.7348 16.9189 26.393 -33.7028 -8.19866 -42.5777
ITEM: TIMESTEP
60650
ITEM: NUMBER OF ATOMS
2
ITEM: BOX BOUNDS pp pp pp
4.8934460676202107e+00 3.0112553932379932e+01
4.8934460676202107e+00 3.0112553932379932e+01
4.8934460676202107e+00 3.0112553932379932e+01
ITEM: ATOMS id type x y z fx fy fz
1556 4 23.4641 17.4234 7.46514 72.9312 0.0714763 49.8265
1555 3 15.7344 16.9119 26.3923 -25.7206 -7.29901 -36.0548
ITEM: TIMESTEP
60660
ITEM: NUMBER OF ATOMS
2
ITEM: BOX BOUNDS pp pp pp
4.8939969834955264e+00 3.0112003016504612e+01
4.8939969834955264e+00 3.0112003016504612e+01
4.8939969834955264e+00 3.0112003016504612e+01
ITEM: ATOMS id type x y z fx fy fz
1556 4 23.4714 17.4295 7.47606 7.97371 -26.1914 -16.5252
1555 3 15.7321 16.9043 26.389 -2.26698 -4.46573 -16.1426
ITEM: TIMESTEP
60670
ITEM: NUMBER OF ATOMS
2
ITEM: BOX BOUNDS pp pp pp
4.8945361239754703e+00 3.0111463876024668e+01
4.8945361239754703e+00 3.0111463876024668e+01
4.8945361239754703e+00 3.0111463876024668e+01
ITEM: ATOMS id type x y z fx fy fz
1556 4 23.4795 17.4337 7.48681 -76.9274 -4.79518 32.1984
1555 3 15.7297 16.8965 26.3847 22.5612 -0.552068 5.7721
ITEM: TIMESTEP
60680
ITEM: NUMBER OF ATOMS
2
ITEM: BOX BOUNDS pp pp pp
4.8950700634702802e+00 3.0110929936529857e+01
4.8950700634702802e+00 3.0110929936529857e+01
4.8950700634702802e+00 3.0110929936529857e+01
ITEM: ATOMS id type x y z fx fy fz
1556 4 23.4819 17.4374 7.49805 -61.2528 21.3411 -123.912
1555 3 15.7289 16.8886 26.3807 37.8575 3.73292 20.8497
ITEM: TIMESTEP
60690
ITEM: NUMBER OF ATOMS
2
ITEM: BOX BOUNDS pp pp pp
4.8956027951745327e+00 3.0110397204825606e+01
4.8956027951745327e+00 3.0110397204825606e+01
4.8956027951745327e+00 3.0110397204825606e+01
ITEM: ATOMS id type x y z fx fy fz
1556 4 23.4781 17.4426 7.50206 -87.8661 -11.7145 52.2281
1555 3 15.7307 16.8809 26.3781 33.4118 7.66628 20.6186
ITEM: TIMESTEP
60700
ITEM: NUMBER OF ATOMS
2
ITEM: BOX BOUNDS pp pp pp
4.8961340428138680e+00 3.0109865957186280e+01
4.8961340428138680e+00 3.0109865957186280e+01
4.8961340428138680e+00 3.0109865957186280e+01
ITEM: ATOMS id type x y z fx fy fz
1556 4 23.4681 17.4471 7.50654 63.1307 -20.0577 -105.836
1555 3 15.7349 16.8739 26.377 17.1095 11.6084 11.3566
ITEM: TIMESTEP
60710
ITEM: NUMBER OF ATOMS
2
ITEM: BOX BOUNDS pp pp pp
4.8966608208871190e+00 3.0109339179113025e+01
4.8966608208871190e+00 3.0109339179113025e+01
4.8966608208871190e+00 3.0109339179113025e+01
ITEM: ATOMS id type x y z fx fy fz
1556 4 23.4613 17.4491 7.5062 44.7797 -76.4715 109.584
1555 3 15.7403 16.8676 26.3767 -2.74677 15.6823 -0.495193
ITEM: TIMESTEP
60720
ITEM: NUMBER OF ATOMS
2
ITEM: BOX BOUNDS pp pp pp
4.8971800750375518e+00 3.0108819924962585e+01
4.8971800750375518e+00 3.0108819924962585e+01
4.8971800750375518e+00 3.0108819924962585e+01
ITEM: ATOMS id type x y z fx fy fz
1556 4 23.4598 17.4465 7.51056 104.374 1.87287 -61.2245
1555 3 15.7456 16.8626 26.3764 -11.6359 20.1532 -3.30149
ITEM: TIMESTEP
60730
ITEM: NUMBER OF ATOMS
2
ITEM: BOX BOUNDS pp pp pp
4.8976917972638070e+00 3.0108308202736332e+01
4.8976917972638070e+00 3.0108308202736332e+01
4.8976917972638070e+00 3.0108308202736332e+01
ITEM: ATOMS id type x y z fx fy fz
1556 4 23.4648 17.4421 7.51281 -40.2879 -56.667 26.9282
1555 3 15.7501 16.859 26.3759 -12.723 23.857 -0.0795007
ITEM: TIMESTEP
60740
ITEM: NUMBER OF ATOMS
2
ITEM: BOX BOUNDS pp pp pp
4.8981978912131670e+00 3.0107802108786977e+01
4.8981978912131670e+00 3.0107802108786977e+01
4.8981978912131670e+00 3.0107802108786977e+01
ITEM: ATOMS id type x y z fx fy fz
1556 4 23.4678 17.4349 7.51506 -28.3732 65.053 -70.5679
1555 3 15.7536 16.8571 26.3754 -13.7553 25.4624 2.41887
ITEM: TIMESTEP
60750
ITEM: NUMBER OF ATOMS
2
ITEM: BOX BOUNDS pp pp pp
4.8986995825183293e+00 3.0107300417481817e+01
4.8986995825183293e+00 3.0107300417481817e+01
4.8986995825183293e+00 3.0107300417481817e+01
ITEM: ATOMS id type x y z fx fy fz
1556 4 23.4672 17.4316 7.51265 -84.0978 1.61927 -24.9134
1555 3 15.7561 16.857 26.3751 -20.3059 24.2553 -0.718747
ITEM: TIMESTEP
60760
ITEM: NUMBER OF ATOMS
2
ITEM: BOX BOUNDS pp pp pp
4.8991959742534270e+00 3.0106804025746726e+01
4.8991959742534270e+00 3.0106804025746726e+01
4.8991959742534270e+00 3.0106804025746726e+01
ITEM: ATOMS id type x y z fx fy fz
1556 4 23.4603 17.4291 7.50742 -31.3489 11.4823 -24.9244
1555 3 15.7571 16.8587 26.3747 -33.4504 20.2537 -10.5218
ITEM: TIMESTEP
60770
ITEM: NUMBER OF ATOMS
2
ITEM: BOX BOUNDS pp pp pp
4.8996839197987772e+00 3.0106316080201378e+01
4.8996839197987772e+00 3.0106316080201378e+01
4.8996839197987772e+00 3.0106316080201378e+01
ITEM: ATOMS id type x y z fx fy fz
1556 4 23.4511 17.428 7.50012 51.3944 35.4819 -19.0501
1555 3 15.7557 16.8619 26.3735 -46.2797 14.4642 -21.2715
ITEM: TIMESTEP
60780
ITEM: NUMBER OF ATOMS
2
ITEM: BOX BOUNDS pp pp pp
4.9001594289300829e+00 3.0105840571070068e+01
4.9001594289300829e+00 3.0105840571070068e+01
4.9001594289300829e+00 3.0105840571070068e+01
ITEM: ATOMS id type x y z fx fy fz
1556 4 23.4453 17.4284 7.49208 32.1998 -66.593 76.5269
1555 3 15.7509 16.8661 26.3708 -49.3809 8.38099 -25.0086
ITEM: TIMESTEP
60790
ITEM: NUMBER OF ATOMS
2
ITEM: BOX BOUNDS pp pp pp
4.9006197663444304e+00 3.0105380233655726e+01
4.9006197663444304e+00 3.0105380233655726e+01
4.9006197663444304e+00 3.0105380233655726e+01
ITEM: ATOMS id type x y z fx fy fz
1556 4 23.4435 17.4254 7.48881 112.919 28.4171 -20.1295
1555 3 15.7426 16.8709 26.3664 -37.1643 3.31899 -16.8769
ITEM: TIMESTEP
60800
ITEM: NUMBER OF ATOMS
2
ITEM: BOX BOUNDS pp pp pp
4.9010653043015076e+00 3.0104934695698660e+01
4.9010653043015076e+00 3.0104934695698660e+01
4.9010653043015076e+00 3.0104934695698660e+01
ITEM: ATOMS id type x y z fx fy fz
1556 4 23.4493 17.4227 7.48536 -17.7729 -46.9688 38.0118
1555 3 15.7318 16.876 26.3608 -12.2556 -0.230976 1.21967
ITEM: TIMESTEP
60810
ITEM: NUMBER OF ATOMS
2
ITEM: BOX BOUNDS pp pp pp
4.9014994490368746e+00 3.0104500550963294e+01
4.9014994490368746e+00 3.0104500550963294e+01
4.9014994490368746e+00 3.0104500550963294e+01
ITEM: ATOMS id type x y z fx fy fz