ITEM: TIMESTEP
60000
ITEM: NUMBER OF ATOMS
2
ITEM: BOX BOUNDS pp pp pp
4.8130648198348567e+00 3.0192935180165968e+01
4.8130648198348567e+00 3.0192935180165968e+01
4.8130648198348567e+00 3.0192935180165968e+01
ITEM: ATOMS id type x y z fx fy fz
1556 4 20.3604 23.2875 7.41685 -79.7262 75.584 -29.4005
1555 3 22.2156 17.7327 24.7053 6.88695 -17.072 -20.9607
ITEM: TIMESTEP
60010
ITEM: NUMBER OF ATOMS
2
ITEM: BOX BOUNDS pp pp pp
4.8132151670846088e+00 3.0192784832916210e+01
4.8132151670846088e+00 3.0192784832916210e+01
4.8132151670846088e+00 3.0192784832916210e+01
ITEM: ATOMS id type x y z fx fy fz
1556 4 20.3662 23.2887 7.41941 -53.6158 -59.7017 103.634
1555 3 22.2267 17.7224 24.7072 1.65424 -6.12276 -10.7479
ITEM: TIMESTEP
60020
ITEM: NUMBER OF ATOMS
2
ITEM: BOX BOUNDS pp pp pp
4.8133621820527601e+00 3.0192637817948054e+01
4.8133621820527601e+00 3.0192637817948054e+01
4.8133621820527601e+00 3.0192637817948054e+01
ITEM: ATOMS id type x y z fx fy fz
1556 4 20.3673 23.2885 7.42763 28.5732 114.847 -82.5847
1555 3 22.2379 17.7117 24.7084 -5.18164 11.1251 8.56923
ITEM: TIMESTEP
60030
ITEM: NUMBER OF ATOMS
2
ITEM: BOX BOUNDS pp pp pp
4.8135089214479674e+00 3.0192491078552848e+01
4.8135089214479674e+00 3.0192491078552848e+01
4.8135089214479674e+00 3.0192491078552848e+01
ITEM: ATOMS id type x y z fx fy fz
1556 4 20.3705 23.2939 7.43258 36.3143 -130.592 12.6793
1555 3 22.2487 17.7018 24.7102 -11.0175 27.2264 26.462
ITEM: TIMESTEP
60040
ITEM: NUMBER OF ATOMS
2
ITEM: BOX BOUNDS pp pp pp
4.8136597968398736e+00 3.0192340203160946e+01
4.8136597968398736e+00 3.0192340203160946e+01
4.8136597968398736e+00 3.0192340203160946e+01
ITEM: ATOMS id type x y z fx fy fz
1556 4 20.3757 23.2918 7.43467 -14.2407 -21.1649 -145.431
1555 3 22.2588 17.6937 24.7138 -12.5273 32.3883 29.1377
ITEM: TIMESTEP
60050
ITEM: NUMBER OF ATOMS
2
ITEM: BOX BOUNDS pp pp pp
4.8138177392742136e+00 3.0192182260726611e+01
4.8138177392742136e+00 3.0192182260726611e+01
4.8138177392742136e+00 3.0192182260726611e+01
ITEM: ATOMS id type x y z fx fy fz
1556 4 20.3817 23.2866 7.42849 94.9633 24.2729 38.9768
1555 3 22.268 17.688 24.7195 -8.94115 24.1904 13.3848
ITEM: TIMESTEP
60060
ITEM: NUMBER OF ATOMS
2
ITEM: BOX BOUNDS pp pp pp
4.8139826507577936e+00 3.0192017349243031e+01
4.8139826507577936e+00 3.0192017349243031e+01
4.8139826507577936e+00 3.0192017349243031e+01
ITEM: ATOMS id type x y z fx fy fz
1556 4 20.3925 23.2833 7.4226 -121.854 -17.7111 -38.5582
1555 3 22.2765 17.684 24.7261 -4.16983 13.8977 -4.201
ITEM: TIMESTEP
60070
ITEM: NUMBER OF ATOMS
2
ITEM: BOX BOUNDS pp pp pp
4.8141529743590254e+00 3.0191847025641792e+01
4.8141529743590254e+00 3.0191847025641792e+01
4.8141529743590254e+00 3.0191847025641792e+01
ITEM: ATOMS id type x y z fx fy fz
1556 4 20.396 23.2789 7.4156 -12.7714 28.7475 79.6928
1555 3 22.2847 17.681 24.7323 1.16531 2.68272 -21.7427
ITEM: TIMESTEP
60080
ITEM: NUMBER OF ATOMS
2
ITEM: BOX BOUNDS pp pp pp
4.8143264035315116e+00 3.0191673596469307e+01
4.8143264035315116e+00 3.0191673596469307e+01
4.8143264035315116e+00 3.0191673596469307e+01
ITEM: ATOMS id type x y z fx fy fz
1556 4 20.3972 23.2773 7.41353 -6.08218 87.7759 16.0961
1555 3 22.293 17.6783 24.7371 4.09316 -1.03567 -27.0623
ITEM: TIMESTEP
60090
ITEM: NUMBER OF ATOMS
2
ITEM: BOX BOUNDS pp pp pp
4.8145018195210856e+00 3.0191498180479726e+01
4.8145018195210856e+00 3.0191498180479726e+01
4.8145018195210856e+00 3.0191498180479726e+01
ITEM: ATOMS id type x y z fx fy fz
1556 4 20.3975 23.2817 7.41348 -45.0994 -31.3331 -0.0813111
1555 3 22.3016 17.6755 24.74 4.50224 2.51945 -20.5366
ITEM: TIMESTEP
60100
ITEM: NUMBER OF ATOMS
2
ITEM: BOX BOUNDS pp pp pp
4.8146791397383790e+00 3.0191320860262433e+01
4.8146791397383790e+00 3.0191320860262433e+01
4.8146791397383790e+00 3.0191320860262433e+01
ITEM: ATOMS id type x y z fx fy fz
1556 4 20.3953 23.2842 7.41398 60.4161 -56.8389 15.8391
1555 3 22.3105 17.673 24.7414 4.44668 6.7943 -11.7119
ITEM: TIMESTEP
60110
ITEM: NUMBER OF ATOMS
2
ITEM: BOX BOUNDS pp pp pp
4.8148576237786553e+00 3.0191142376222160e+01
4.8148576237786553e+00 3.0191142376222160e+01
4.8148576237786553e+00 3.0191142376222160e+01
ITEM: ATOMS id type x y z fx fy fz
1556 4 20.3967 23.2832 7.41391 61.8462 38.0091 -132.438
1555 3 22.3197 17.6709 24.7419 5.23882 7.68516 -6.67163
ITEM: TIMESTEP
60120
ITEM: NUMBER OF ATOMS
2
ITEM: BOX BOUNDS pp pp pp
4.8150348494704396e+00 3.0190965150530385e+01
4.8150348494704396e+00 3.0190965150530385e+01
4.8150348494704396e+00 3.0190965150530385e+01
ITEM: ATOMS id type x y z fx fy fz
1556 4 20.4042 23.283 7.40646 46.3738 -108.426 66.9281
1555 3 22.3293 17.6693 24.7419 8.29189 1.04065 -11.6955
ITEM: TIMESTEP
60130
ITEM: NUMBER OF ATOMS
2
ITEM: BOX BOUNDS pp pp pp
4.8152072102511294e+00 3.0190792789749693e+01
4.8152072102511294e+00 3.0190792789749693e+01
4.8152072102511294e+00 3.0190792789749693e+01
ITEM: ATOMS id type x y z fx fy fz
1556 4 20.4141 23.2763 7.4009 -63.229 54.1351 -26.5011
1555 3 22.3396 17.6677 24.741 11.8335 -7.84157 -19.6503
ITEM: TIMESTEP
60140
ITEM: NUMBER OF ATOMS
2
ITEM: BOX BOUNDS pp pp pp
4.8153722575429416e+00 3.0190627742457885e+01
4.8153722575429416e+00 3.0190627742457885e+01
4.8153722575429416e+00 3.0190627742457885e+01
ITEM: ATOMS id type x y z fx fy fz
1556 4 20.4207 23.2733 7.39655 -0.809149 87.6055 111.833
1555 3 22.3506 17.6657 24.7387 13.1291 -10.7019 -19.1959
ITEM: TIMESTEP
60150
ITEM: NUMBER OF ATOMS
2
ITEM: BOX BOUNDS pp pp pp
4.8155315713385640e+00 3.0190468428662264e+01
4.8155315713385640e+00 3.0190468428662264e+01
4.8155315713385640e+00 3.0190468428662264e+01
ITEM: ATOMS id type x y z fx fy fz
1556 4 20.4247 23.2768 7.3994 -109.238 -45.6882 10.7428
1555 3 22.3626 17.6629 24.7352 9.81458 -0.52058 -0.671563
ITEM: TIMESTEP
60160
ITEM: NUMBER OF ATOMS
2
ITEM: BOX BOUNDS pp pp pp
4.8156916591554904e+00 3.0190308340845345e+01
4.8156916591554904e+00 3.0190308340845345e+01
4.8156916591554904e+00 3.0190308340845345e+01
ITEM: ATOMS id type x y z fx fy fz
1556 4 20.4221 23.2781 7.40467 75.1299 21.1715 28.5324
1555 3 22.3754 17.6601 24.7316 5.43804 12.1911 20.672
ITEM: TIMESTEP
60170
ITEM: NUMBER OF ATOMS
2
ITEM: BOX BOUNDS pp pp pp
4.8158601429026362e+00 3.0190139857098210e+01
4.8158601429026362e+00 3.0190139857098210e+01
4.8158601429026362e+00 3.0190139857098210e+01
ITEM: ATOMS id type x y z fx fy fz
1556 4 20.4234 23.2803 7.41072 5.69538 -7.54346 -113.322
1555 3 22.3885 17.6582 24.7295 1.31715 23.4835 39.1808
ITEM: TIMESTEP
60180
ITEM: NUMBER OF ATOMS
2
ITEM: BOX BOUNDS pp pp pp
4.8160429718913349e+00 3.0189957028109511e+01
4.8160429718913349e+00 3.0189957028109511e+01
4.8160429718913349e+00 3.0189957028109511e+01
ITEM: ATOMS id type x y z fx fy fz
1556 4 20.4266 23.2812 7.4094 33.9863 -104.713 12.0061
1555 3 22.4017 17.6579 24.7301 0.959243 23.1151 40.2749
ITEM: TIMESTEP
60190
ITEM: NUMBER OF ATOMS
2
ITEM: BOX BOUNDS pp pp pp
4.8162415799130276e+00 3.0189758420087816e+01
4.8162415799130276e+00 3.0189758420087816e+01
4.8162415799130276e+00 3.0189758420087816e+01
ITEM: ATOMS id type x y z fx fy fz
1556 4 20.4321 23.2745 7.407 5.88652 -1.27875 -57.9536
1555 3 22.415 17.6593 24.7336 3.85415 12.4738 26.1911
ITEM: TIMESTEP
60200
ITEM: NUMBER OF ATOMS
2
ITEM: BOX BOUNDS pp pp pp
4.8164530290207281e+00 3.0189546970980118e+01
4.8164530290207281e+00 3.0189546970980118e+01
4.8164530290207281e+00 3.0189546970980118e+01
ITEM: ATOMS id type x y z fx fy fz
1556 4 20.4385 23.2675 7.4011 11.4754 62.7246 29.4027
1555 3 22.4286 17.6615 24.7389 8.53174 -4.18089 3.11344
ITEM: TIMESTEP
60210
ITEM: NUMBER OF ATOMS
2
ITEM: BOX BOUNDS pp pp pp
4.8166713587000469e+00 3.0189328641300801e+01
4.8166713587000469e+00 3.0189328641300801e+01
4.8166713587000469e+00 3.0189328641300801e+01
ITEM: ATOMS id type x y z fx fy fz
1556 4 20.4447 23.2646 7.39752 -105.131 -18.136 51.5196
1555 3 22.4428 17.6634 24.7444 11.254 -16.1328 -13.5381
ITEM: TIMESTEP
60220
ITEM: NUMBER OF ATOMS
2
ITEM: BOX BOUNDS pp pp pp
4.8168909287663269e+00 3.0189109071234522e+01
4.8168909287663269e+00 3.0189109071234522e+01
4.8168909287663269e+00 3.0189109071234522e+01
ITEM: ATOMS id type x y z fx fy fz
1556 4 20.443 23.2621 7.39836 -15.5233 61.7396 59.2285
1555 3 22.4578 17.6643 24.7491 10.9642 -20.3069 -19.384
ITEM: TIMESTEP
60230
ITEM: NUMBER OF ATOMS
2
ITEM: BOX BOUNDS pp pp pp
4.8171088170763419e+00 3.0188891182924507e+01
4.8171088170763419e+00 3.0188891182924507e+01
4.8171088170763419e+00 3.0188891182924507e+01
ITEM: ATOMS id type x y z fx fy fz
1556 4 20.4393 23.2642 7.40389 41.1428 35.0473 -29.7754
1555 3 22.4735 17.6637 24.7524 6.77822 -14.2564 -10.8905
ITEM: TIMESTEP
60240
ITEM: NUMBER OF ATOMS
2
ITEM: BOX BOUNDS pp pp pp
4.8173261613976717e+00 3.0188673838603179e+01
4.8173261613976717e+00 3.0188673838603179e+01
4.8173261613976717e+00 3.0188673838603179e+01
ITEM: ATOMS id type x y z fx fy fz
1556 4 20.4387 23.2679 7.40783 30.9208 -126.041 -43.058
1555 3 22.4898 17.662 24.755 2.15701 -7.53381 -1.60459
ITEM: TIMESTEP
60250
ITEM: NUMBER OF ATOMS
2
ITEM: BOX BOUNDS pp pp pp
4.8175458764209846e+00 3.0188454123579863e+01
4.8175458764209846e+00 3.0188454123579863e+01
4.8175458764209846e+00 3.0188454123579863e+01
ITEM: ATOMS id type x y z fx fy fz
1556 4 20.4414 23.264 7.4074 101.327 44.7039 -47.7801
1555 3 22.5062 17.6598 24.7573 0.576923 -9.42273 -4.63938
ITEM: TIMESTEP
60260
ITEM: NUMBER OF ATOMS
2
ITEM: BOX BOUNDS pp pp pp
4.8177698817153765e+00 3.0188230118285460e+01
4.8177698817153765e+00 3.0188230118285460e+01
4.8177698817153765e+00 3.0188230118285460e+01
ITEM: ATOMS id type x y z fx fy fz
1556 4 20.4513 23.2619 7.40363 -15.1216 4.84713 -16.4603
1555 3 22.5227 17.6569 24.7593 -0.117046 -13.6641 -10.9928
ITEM: TIMESTEP
60270
ITEM: NUMBER OF ATOMS
2
ITEM: BOX BOUNDS pp pp pp
4.8179991985155795e+00 3.0188000801485259e+01
4.8179991985155795e+00 3.0188000801485259e+01
4.8179991985155795e+00 3.0188000801485259e+01
ITEM: ATOMS id type x y z fx fy fz
1556 4 20.4607 23.2605 7.39882 -46.2681 -27.4886 66.022
1555 3 22.5392 17.6529 24.7605 -1.22781 -16.5318 -15.3479
ITEM: TIMESTEP
60280
ITEM: NUMBER OF ATOMS
2
ITEM: BOX BOUNDS pp pp pp
4.8182341752900317e+00 3.0187765824710809e+01
4.8182341752900317e+00 3.0187765824710809e+01
4.8182341752900317e+00 3.0187765824710809e+01
ITEM: ATOMS id type x y z fx fy fz
1556 4 20.4663 23.258 7.39785 -50.2113 107.067 -29.2428
1555 3 22.5555 17.6478 24.7606 -4.4252 -13.4222 -11.1192
ITEM: TIMESTEP
60290
ITEM: NUMBER OF ATOMS
2
ITEM: BOX BOUNDS pp pp pp
4.8184756104418796e+00 3.0187524389558966e+01
4.8184756104418796e+00 3.0187524389558966e+01
4.8184756104418796e+00 3.0187524389558966e+01
ITEM: ATOMS id type x y z fx fy fz
1556 4 20.4683 23.2629 7.39663 7.43986 30.8441 83.9363
1555 3 22.5715 17.6418 24.76 -10.1 -3.28125 3.2586
ITEM: TIMESTEP
60300
ITEM: NUMBER OF ATOMS
2
ITEM: BOX BOUNDS pp pp pp
4.8187253689304939e+00 3.0187274631070352e+01
4.8187253689304939e+00 3.0187274631070352e+01
4.8187253689304939e+00 3.0187274631070352e+01
ITEM: ATOMS id type x y z fx fy fz
1556 4 20.4692 23.2705 7.39967 -94.434 -61.4505 -83.3689
1555 3 22.5868 17.6356 24.7596 -17.7361 12.6044 26.0308
ITEM: TIMESTEP
60310
ITEM: NUMBER OF ATOMS
2
ITEM: BOX BOUNDS pp pp pp
4.8189854145546640e+00 3.0187014585446185e+01
4.8189854145546640e+00 3.0187014585446185e+01
4.8189854145546640e+00 3.0187014585446185e+01
ITEM: ATOMS id type x y z fx fy fz
1556 4 20.4647 23.2742 7.39849 98.5935 16.0513 12.8238
1555 3 22.6008 17.6302 24.7611 -22.3071 21.0721 38.5123
ITEM: TIMESTEP
60320
ITEM: NUMBER OF ATOMS
2
ITEM: BOX BOUNDS pp pp pp
4.8192547323666215e+00 3.0186745267634226e+01
4.8192547323666215e+00 3.0186745267634226e+01
4.8192547323666215e+00 3.0186745267634226e+01
ITEM: ATOMS id type x y z fx fy fz
1556 4 20.4658 23.2783 7.39516 -7.58019 -25.0398 -155.005
1555 3 22.6132 17.6264 24.7653 -23.712 22.6345 41.345
ITEM: TIMESTEP
60330
ITEM: NUMBER OF ATOMS
2
ITEM: BOX BOUNDS pp pp pp
4.8195293874938852e+00 3.0186470612506966e+01
4.8195293874938852e+00 3.0186470612506966e+01
4.8195293874938852e+00 3.0186470612506966e+01
ITEM: ATOMS id type x y z fx fy fz
1556 4 20.4684 23.2796 7.383 50.7998 -95.5666 76.7923
1555 3 22.6239 17.6241 24.7724 -19.0252 9.90998 23.9767
ITEM: TIMESTEP
60340
ITEM: NUMBER OF ATOMS
2
ITEM: BOX BOUNDS pp pp pp
4.8198026114705108e+00 3.0186197388530339e+01
4.8198026114705108e+00 3.0186197388530339e+01
4.8198026114705108e+00 3.0186197388530339e+01
ITEM: ATOMS id type x y z fx fy fz
1556 4 20.4728 23.2755 7.37243 -65.2732 107.722 -89.6546
1555 3 22.6332 17.6225 24.7812 -11.8233 -7.67888 -0.293841
ITEM: TIMESTEP
60350
ITEM: NUMBER OF ATOMS
2
ITEM: BOX BOUNDS pp pp pp
4.8200680470694035e+00 3.0185931952931448e+01
4.8200680470694035e+00 3.0185931952931448e+01
4.8200680470694035e+00 3.0185931952931448e+01
ITEM: ATOMS id type x y z fx fy fz
1556 4 20.4737 23.2779 7.3594 -18.5123 6.66719 144.516
1555 3 22.6417 17.6203 24.79 -5.28235 -22.1504 -20.3324
ITEM: TIMESTEP
60360
ITEM: NUMBER OF ATOMS
2
ITEM: BOX BOUNDS pp pp pp
4.8203223954874606e+00 3.0185677604513383e+01
4.8203223954874606e+00 3.0185677604513383e+01
4.8203223954874606e+00 3.0185677604513383e+01
ITEM: ATOMS id type x y z fx fy fz
1556 4 20.4713 23.2817 7.35422 -77.8048 -3.86406 -11.191
1555 3 22.6497 17.6166 24.7975 -2.65799 -25.4029 -24.8825
ITEM: TIMESTEP
60370
ITEM: NUMBER OF ATOMS
2
ITEM: BOX BOUNDS pp pp pp
4.8205662228755557e+00 3.0185433777125290e+01
4.8205662228755557e+00 3.0185433777125290e+01
4.8205662228755557e+00 3.0185433777125290e+01
ITEM: ATOMS id type x y z fx fy fz
1556 4 20.4644 23.286 7.3506 60.6266 72.4431 29.3491
1555 3 22.6576 17.6111 24.8032 -1.9836 -22.8965 -21.697
ITEM: TIMESTEP
60380
ITEM: NUMBER OF ATOMS
2
ITEM: BOX BOUNDS pp pp pp
4.8208017745599570e+00 3.0185198225440885e+01
4.8208017745599570e+00 3.0185198225440885e+01
4.8208017745599570e+00 3.0185198225440885e+01
ITEM: ATOMS id type x y z fx fy fz
1556 4 20.4611 23.2949 7.34841 19.4067 -40.0412 -5.69969
1555 3 22.6653 17.604 24.8073 -3.4404 -14.4835 -10.6208
ITEM: TIMESTEP
60390
ITEM: NUMBER OF ATOMS
2
ITEM: BOX BOUNDS pp pp pp
4.8210321410076311e+00 3.0184967858993204e+01
4.8210321410076311e+00 3.0184967858993204e+01
4.8210321410076311e+00 3.0184967858993204e+01
ITEM: ATOMS id type x y z fx fy fz
1556 4 20.4599 23.3008 7.34574 11.1642 -81.7986 -30.3108
1555 3 22.6728 17.5958 24.8107 -4.1871 -7.67856 -2.22187
ITEM: TIMESTEP
60400
ITEM: NUMBER OF ATOMS
2
ITEM: BOX BOUNDS pp pp pp
4.8212593379880406e+00 3.0184740662012793e+01
4.8212593379880406e+00 3.0184740662012793e+01
4.8212593379880406e+00 3.0184740662012793e+01
ITEM: ATOMS id type x y z fx fy fz
1556 4 20.4608 23.3012 7.34121 101.443 57.5292 10.5483
1555 3 22.6799 17.587 24.8138 -2.83069 -6.24707 -1.76371
ITEM: TIMESTEP
60410
ITEM: NUMBER OF ATOMS
2
ITEM: BOX BOUNDS pp pp pp
4.8214833014800895e+00 3.0184516698520746e+01
4.8214833014800895e+00 3.0184516698520746e+01
4.8214833014800895e+00 3.0184516698520746e+01
ITEM: ATOMS id type x y z fx fy fz
1556 4 20.4683 23.3046 7.3361 -52.0665 -15.8592 -48.6129
1555 3 22.6869 17.5777 24.8169 -1.60004 -4.68083 -1.64177
ITEM: TIMESTEP
60420
ITEM: NUMBER OF ATOMS
2
ITEM: BOX BOUNDS pp pp pp
4.8217030029427814e+00 3.0184296997058048e+01
4.8217030029427814e+00 3.0184296997058048e+01
4.8217030029427814e+00 3.0184296997058048e+01
ITEM: ATOMS id type x y z fx fy fz
1556 4 20.4733 23.307 7.32976 -34.9161 -34.5775 141.313
1555 3 22.6938 17.5681 24.8198 -0.214472 -4.0074 -3.27112
ITEM: TIMESTEP
60430
ITEM: NUMBER OF ATOMS
2
ITEM: BOX BOUNDS pp pp pp
4.8219169194305280e+00 3.0184083080570304e+01
4.8219169194305280e+00 3.0184083080570304e+01
4.8219169194305280e+00 3.0184083080570304e+01
ITEM: ATOMS id type x y z fx fy fz
1556 4 20.4739 23.3087 7.33094 -79.1537 159.73 -58.9286
1555 3 22.7006 17.5583 24.8225 -2.12428 4.45718 5.32526
ITEM: TIMESTEP
60440
ITEM: NUMBER OF ATOMS
2
ITEM: BOX BOUNDS pp pp pp
4.8221263650902184e+00 3.0183873634910618e+01
4.8221263650902184e+00 3.0183873634910618e+01
4.8221263650902184e+00 3.0183873634910618e+01
ITEM: ATOMS id type x y z fx fy fz
1556 4 20.4694 23.3197 7.33205 -14.5564 -92.4742 103.228
1555 3 22.7072 17.5488 24.8257 -6.96655 19.621 22.6779
ITEM: TIMESTEP
60450
ITEM: NUMBER OF ATOMS
2
ITEM: BOX BOUNDS pp pp pp
4.8223366126562812e+00 3.0183663387344552e+01
4.8223366126562812e+00 3.0183663387344552e+01
4.8223366126562812e+00 3.0183663387344552e+01
ITEM: ATOMS id type x y z fx fy fz
1556 4 20.4626 23.3261 7.33696 0.396804 -15.7693 -146.512
1555 3 22.7134 17.5408 24.8305 -11.5581 33.1254 37.5221
ITEM: TIMESTEP
60460
ITEM: NUMBER OF ATOMS
2
ITEM: BOX BOUNDS pp pp pp
4.8225539807177480e+00 3.0183446019283075e+01
4.8225539807177480e+00 3.0183446019283075e+01
4.8225539807177480e+00 3.0183446019283075e+01
ITEM: ATOMS id type x y z fx fy fz
1556 4 20.4572 23.33 7.33409 131.91 -17.7281 24.5089
1555 3 22.7187 17.535 24.8379 -11.2886 33.1121 33.9871
ITEM: TIMESTEP
60470
ITEM: NUMBER OF ATOMS
2
ITEM: BOX BOUNDS pp pp pp
4.8227817658502889e+00 3.0183218234150544e+01
4.8227817658502889e+00 3.0183218234150544e+01
4.8227817658502889e+00 3.0183218234150544e+01
ITEM: ATOMS id type x y z fx fy fz
1556 4 20.4602 23.3322 7.32975 -60.4577 -66.7935 -104.345
1555 3 22.7232 17.5317 24.8477 -7.89858 24.1199 18.6998
ITEM: TIMESTEP
60480
ITEM: NUMBER OF ATOMS
2
ITEM: BOX BOUNDS pp pp pp
4.8230197985472305e+00 3.0182980201453603e+01
4.8230197985472305e+00 3.0182980201453603e+01
4.8230197985472305e+00 3.0182980201453603e+01
ITEM: ATOMS id type x y z fx fy fz
1556 4 20.4606 23.3292 7.31979 21.6859 -13.6026 89.7119
1555 3 22.7272 17.53 24.8588 -0.770329 4.36787 -10.3746
ITEM: TIMESTEP
60490
ITEM: NUMBER OF ATOMS
2
ITEM: BOX BOUNDS pp pp pp
4.8232641281848476e+00 3.0182735871815986e+01
4.8232641281848476e+00 3.0182735871815986e+01
4.8232641281848476e+00 3.0182735871815986e+01
ITEM: ATOMS id type x y z fx fy fz
1556 4 20.4615 23.3261 7.31491 -19.727 122.506 12.9338
1555 3 22.7311 17.5286 24.8692 4.30495 -11.0409 -32.6457
ITEM: TIMESTEP
60500
ITEM: NUMBER OF ATOMS
2
ITEM: BOX BOUNDS pp pp pp
4.8235106210142824e+00 3.0182489378986553e+01
4.8235106210142824e+00 3.0182489378986553e+01
4.8235106210142824e+00 3.0182489378986553e+01
ITEM: ATOMS id type x y z fx fy fz
1556 4 20.4607 23.3309 7.31277 -79.5729 -25.3533 80.6332
1555 3 22.7353 17.5266 24.8773 4.97824 -15.7576 -39.5766
ITEM: TIMESTEP
60510
ITEM: NUMBER OF ATOMS
2
ITEM: BOX BOUNDS pp pp pp
4.8237571382905866e+00 3.0182242861710250e+01
4.8237571382905866e+00 3.0182242861710250e+01
4.8237571382905866e+00 3.0182242861710250e+01
ITEM: ATOMS id type x y z fx fy fz
1556 4 20.4539 23.3353 7.31654 -18.0693 14.1439 32.4422
1555 3 22.7398 17.5234 24.8826 1.79653 -10.7087 -32.6127
ITEM: TIMESTEP
60520
ITEM: NUMBER OF ATOMS
2
ITEM: BOX BOUNDS pp pp pp
4.8240033749741453e+00 3.0181996625026699e+01
4.8240033749741453e+00 3.0181996625026699e+01
4.8240033749741453e+00 3.0181996625026699e+01
ITEM: ATOMS id type x y z fx fy fz
1556 4 20.4458 23.3411 7.32285 79.7585 55.5282 -36.9203
1555 3 22.7444 17.5195 24.8856 -3.71602 0.630437 -16.6183
ITEM: TIMESTEP
60530
ITEM: NUMBER OF ATOMS
2
ITEM: BOX BOUNDS pp pp pp
4.8242498129955909e+00 3.0181750187005257e+01
4.8242498129955909e+00 3.0181750187005257e+01
4.8242498129955909e+00 3.0181750187005257e+01
ITEM: ATOMS id type x y z fx fy fz
1556 4 20.4436 23.3493 7.32717 44.5019 -149.197 -42.2288
1555 3 22.7488 17.5156 24.8874 -8.59651 11.2322 -1.2558
ITEM: TIMESTEP
60540
ITEM: NUMBER OF ATOMS
2
ITEM: BOX BOUNDS pp pp pp
4.8244965650621108e+00 3.0181503434938733e+01
4.8244965650621108e+00 3.0181503434938733e+01
4.8244965650621108e+00 3.0181503434938733e+01
ITEM: ATOMS id type x y z fx fy fz
1556 4 20.4453 23.3482 7.32675 52.4096 7.19483 -77.672
1555 3 22.7526 17.5125 24.8889 -8.30461 10.008 -1.57474
ITEM: TIMESTEP
60550
ITEM: NUMBER OF ATOMS
2
ITEM: BOX BOUNDS pp pp pp
4.8247420618438479e+00 3.0181257938157003e+01
4.8247420618438479e+00 3.0181257938157003e+01
4.8247420618438479e+00 3.0181257938157003e+01
ITEM: ATOMS id type x y z fx fy fz
1556 4 20.4509 23.3465 7.32173 -5.11629 46.6258 59.267
1555 3 22.7557 17.5101 24.8903 -5.11453 3.06192 -9.66855
ITEM: TIMESTEP
60560
ITEM: NUMBER OF ATOMS
2
ITEM: BOX BOUNDS pp pp pp
4.8249847696318930e+00 3.0181015230368956e+01
4.8249847696318930e+00 3.0181015230368956e+01
4.8249847696318930e+00 3.0181015230368956e+01
ITEM: ATOMS id type x y z fx fy fz
1556 4 20.4553 23.3482 7.31996 -130.649 -10.9045 14.1572
1555 3 22.7585 17.5079 24.8911 -3.79286 2.68029 -9.37078
ITEM: TIMESTEP
60570
ITEM: NUMBER OF ATOMS
2
ITEM: BOX BOUNDS pp pp pp
4.8252254773999557e+00 3.0180774522600899e+01
4.8252254773999557e+00 3.0180774522600899e+01
4.8252254773999557e+00 3.0180774522600899e+01
ITEM: ATOMS id type x y z fx fy fz
1556 4 20.4505 23.3502 7.32058 7.35289 58.3365 67.6886
1555 3 22.7611 17.506 24.8912 -4.10056 8.2229 -1.72696
ITEM: TIMESTEP
60580
ITEM: NUMBER OF ATOMS
2
ITEM: BOX BOUNDS pp pp pp
4.8254669805210195e+00 3.0180533019479839e+01
4.8254669805210195e+00 3.0180533019479839e+01
4.8254669805210195e+00 3.0180533019479839e+01
ITEM: ATOMS id type x y z fx fy fz
1556 4 20.4446 23.3567 7.32542 -7.83458 49.6988 -68.6264
1555 3 22.7633 17.5047 24.8913 -6.71998 21.1557 15.1578
ITEM: TIMESTEP
60590
ITEM: NUMBER OF ATOMS
2
ITEM: BOX BOUNDS pp pp pp
4.8257131022329585e+00 3.0180286897767893e+01
4.8257131022329585e+00 3.0180286897767893e+01
4.8257131022329585e+00 3.0180286897767893e+01
ITEM: ATOMS id type x y z fx fy fz
1556 4 20.4386 23.3662 7.32678 23.9418 -116.373 40.9432
1555 3 22.765 17.5049 24.8924 -7.89613 31.3568 27.8623
ITEM: TIMESTEP
60600
ITEM: NUMBER OF ATOMS
2
ITEM: BOX BOUNDS pp pp pp
4.8259656986106254e+00 3.0180034301390226e+01
4.8259656986106254e+00 3.0180034301390226e+01
4.8259656986106254e+00 3.0180034301390226e+01
ITEM: ATOMS id type x y z fx fy fz
1556 4 20.4342 23.3681 7.32889 26.6143 14.053 -120.392
1555 3 22.7662 17.5074 24.8955 -5.79057 33.3472 29.4253
ITEM: TIMESTEP
60610
ITEM: NUMBER OF ATOMS
2
ITEM: BOX BOUNDS pp pp pp
4.8262229040493860e+00 3.0179777095951465e+01
4.8262229040493860e+00 3.0179777095951465e+01
4.8262229040493860e+00 3.0179777095951465e+01
ITEM: ATOMS id type x y z fx fy fz
1556 4 20.4332 23.3699 7.32342 91.2661 8.85044 24.3534
1555 3 22.7669 17.5122 24.9006 0.652015 23.7683 15.5691
ITEM: TIMESTEP
60620
ITEM: NUMBER OF ATOMS
2
ITEM: BOX BOUNDS pp pp pp
4.8264786212480555e+00 3.0179521378752796e+01
4.8264786212480555e+00 3.0179521378752796e+01
4.8264786212480555e+00 3.0179521378752796e+01
ITEM: ATOMS id type x y z fx fy fz
1556 4 20.4381 23.3719 7.31793 -64.8836 -46.1463 -29.9967
1555 3 22.7678 17.5187 24.9069 8.19665 10.2225 -3.33859
ITEM: TIMESTEP
60630
ITEM: NUMBER OF ATOMS
2
ITEM: BOX BOUNDS pp pp pp
4.8267245400051326e+00 3.0179275459995711e+01
4.8267245400051326e+00 3.0179275459995711e+01
4.8267245400051326e+00 3.0179275459995711e+01
ITEM: ATOMS id type x y z fx fy fz
1556 4 20.4392 23.3715 7.31169 -6.993 64.461 88.9733
1555 3 22.7692 17.526 24.9128 15.8785 -5.15592 -24.3758
ITEM: TIMESTEP
60640
ITEM: NUMBER OF ATOMS
2
ITEM: BOX BOUNDS pp pp pp
4.8269523453506693e+00 3.0179047654650176e+01
4.8269523453506693e+00 3.0179047654650176e+01
4.8269523453506693e+00 3.0179047654650176e+01
ITEM: ATOMS id type x y z fx fy fz
1556 4 20.4383 23.3764 7.31095 -48.7257 103.138 -14.9392
1555 3 22.7717 17.533 24.9172 18.704 -9.72051 -30.7705
ITEM: TIMESTEP
60650
ITEM: NUMBER OF ATOMS
2
ITEM: BOX BOUNDS pp pp pp
4.8271581417642881e+00 3.0178841858236552e+01
4.8271581417642881e+00 3.0178841858236552e+01
4.8271581417642881e+00 3.0178841858236552e+01
ITEM: ATOMS id type x y z fx fy fz
1556 4 20.4341 23.388 7.31205 -0.409612 -88.9425 81.4286
1555 3 22.7757 17.5393 24.9193 17.2232 -4.82886 -24.3724
ITEM: TIMESTEP
60660
ITEM: NUMBER OF ATOMS
2
ITEM: BOX BOUNDS pp pp pp
4.8273432339318880e+00 3.0178656766068947e+01
4.8273432339318880e+00 3.0178656766068947e+01
4.8273432339318880e+00 3.0178656766068947e+01
ITEM: ATOMS id type x y z fx fy fz
1556 4 20.4293 23.3957 7.31672 71.9548 55.4486 -88.1564
1555 3 22.7808 17.5452 24.9197 14.2305 2.51075 -14.5863
ITEM: TIMESTEP
60670
ITEM: NUMBER OF ATOMS
2
ITEM: BOX BOUNDS pp pp pp
4.8275114349660324e+00 3.0178488565034797e+01
4.8275114349660324e+00 3.0178488565034797e+01
4.8275114349660324e+00 3.0178488565034797e+01
ITEM: ATOMS id type x y z fx fy fz
1556 4 20.4304 23.4059 7.31722 72.6672 -30.8282 5.58689
1555 3 22.787 17.5513 24.9191 11.9053 6.92949 -8.55966
ITEM: TIMESTEP
60680
ITEM: NUMBER OF ATOMS
2
ITEM: BOX BOUNDS pp pp pp
4.8276665218848738e+00 3.0178333478115952e+01
4.8276665218848738e+00 3.0178333478115952e+01
4.8276665218848738e+00 3.0178333478115952e+01
ITEM: ATOMS id type x y z fx fy fz
1556 4 20.4369 23.414 7.31673 -12.7588 -69.0192 7.77369
1555 3 22.7941 17.558 24.9178 10.5864 7.81388 -7.19267
ITEM: TIMESTEP
60690
ITEM: NUMBER OF ATOMS
2
ITEM: BOX BOUNDS pp pp pp
4.8278108153581876e+00 3.0178189184642637e+01
4.8278108153581876e+00 3.0178189184642637e+01
4.8278108153581876e+00 3.0178189184642637e+01
ITEM: ATOMS id type x y z fx fy fz
1556 4 20.4434 23.4177 7.31678 20.5538 82.6065 -23.8426
1555 3 22.802 17.5651 24.9159 9.92836 6.25193 -9.09356
ITEM: TIMESTEP
60700
ITEM: NUMBER OF ATOMS
2
ITEM: BOX BOUNDS pp pp pp
4.8279450654490041e+00 3.0178054934551817e+01
4.8279450654490041e+00 3.0178054934551817e+01
4.8279450654490041e+00 3.0178054934551817e+01
ITEM: ATOMS id type x y z fx fy fz
1556 4 20.4516 23.4266 7.3161 15.0355 20.1315 89.9854
1555 3 22.8105 17.5727 24.9134 7.90084 7.51714 -7.28839
ITEM: TIMESTEP
60710
ITEM: NUMBER OF ATOMS
2
ITEM: BOX BOUNDS pp pp pp
4.8280697095062806e+00 3.0177930290494544e+01
4.8280697095062806e+00 3.0177930290494544e+01
4.8280697095062806e+00 3.0177930290494544e+01
ITEM: ATOMS id type x y z fx fy fz
1556 4 20.4599 23.4374 7.32054 -118.941 -27.2336 -47.7856
1555 3 22.8197 17.581 24.9105 3.24448 14.8824 2.60893
ITEM: TIMESTEP
60720
ITEM: NUMBER OF ATOMS
2
ITEM: BOX BOUNDS pp pp pp
4.8281856309687825e+00 3.0177814369032038e+01
4.8281856309687825e+00 3.0177814369032038e+01
4.8281856309687825e+00 3.0177814369032038e+01
ITEM: ATOMS id type x y z fx fy fz
1556 4 20.4606 23.4467 7.32399 47.0005 37.3539 91.6507
1555 3 22.8291 17.5903 24.9077 -1.29306 21.5321 11.657
ITEM: TIMESTEP
60730
ITEM: NUMBER OF ATOMS
2
ITEM: BOX BOUNDS pp pp pp
4.8282931521614678e+00 3.0177706847839360e+01
4.8282931521614678e+00 3.0177706847839360e+01
4.8282931521614678e+00 3.0177706847839360e+01
ITEM: ATOMS id type x y z fx fy fz
1556 4 20.4628 23.4589 7.3315 -33.0956 21.8864 -122.307
1555 3 22.8383 17.6012 24.9059 -7.24551 31.4345 25.2436
ITEM: TIMESTEP
60740
ITEM: NUMBER OF ATOMS
2
ITEM: BOX BOUNDS pp pp pp
4.8283927021388902e+00 3.0177607297861940e+01
4.8283927021388902e+00 3.0177607297861940e+01
4.8283927021388902e+00 3.0177607297861940e+01
ITEM: ATOMS id type x y z fx fy fz
1556 4 20.4638 23.4713 7.33306 45.1194 -151.766 43.2019
1555 3 22.8471 17.6143 24.9058 -9.82751 32.8704 27.9026
ITEM: TIMESTEP
60750
ITEM: NUMBER OF ATOMS
2
ITEM: BOX BOUNDS pp pp pp
4.8284833214315643e+00 3.0177516678569280e+01
4.8284833214315643e+00 3.0177516678569280e+01
4.8284833214315643e+00 3.0177516678569280e+01
ITEM: ATOMS id type x y z fx fy fz
1556 4 20.467 23.4749 7.33348 35.3776 79.3434 -147.938
1555 3 22.8552 17.6297 24.9076 -7.73725 22.9082 15.9247
ITEM: TIMESTEP
60760
ITEM: NUMBER OF ATOMS
2
ITEM: BOX BOUNDS pp pp pp
4.8285626381549314e+00 3.0177437361845918e+01
4.8285626381549314e+00 3.0177437361845918e+01
4.8285626381549314e+00 3.0177437361845918e+01
ITEM: ATOMS id type x y z fx fy fz
1556 4 20.4738 23.4812 7.3269 5.05981 -72.6118 97.4932
1555 3 22.8628 17.6468 24.9105 -2.21426 4.90323 -6.24771
ITEM: TIMESTEP
60770
ITEM: NUMBER OF ATOMS
2
ITEM: BOX BOUNDS pp pp pp
4.8286281624517784e+00 3.0177371837549074e+01
4.8286281624517784e+00 3.0177371837549074e+01
4.8286281624517784e+00 3.0177371837549074e+01
ITEM: ATOMS id type x y z fx fy fz
1556 4 20.4797 23.4841 7.32391 -92.2152 21.8117 -45.6308
1555 3 22.8702 17.6642 24.9131 3.07196 -12.097 -26.5034
ITEM: TIMESTEP
60780
ITEM: NUMBER OF ATOMS
2
ITEM: BOX BOUNDS pp pp pp
4.8286783262942148e+00 3.0177321673706626e+01
4.8286783262942148e+00 3.0177321673706626e+01
4.8286783262942148e+00 3.0177321673706626e+01
ITEM: ATOMS id type x y z fx fy fz
1556 4 20.4798 23.4882 7.32075 32.7547 63.6319 112.079
1555 3 22.8778 17.6808 24.9137 6.72692 -24.5559 -40.2578
ITEM: TIMESTEP
60790
ITEM: NUMBER OF ATOMS
2
ITEM: BOX BOUNDS pp pp pp
4.8287129538213058e+00 3.0177287046179536e+01
4.8287129538213058e+00 3.0177287046179536e+01
4.8287129538213058e+00 3.0177287046179536e+01
ITEM: ATOMS id type x y z fx fy fz
1556 4 20.4809 23.4969 7.32436 -48.1877 -12.2859 0.405639
1555 3 22.8859 17.6956 24.9115 5.24956 -23.9605 -36.3295
ITEM: TIMESTEP
60800
ITEM: NUMBER OF ATOMS
2
ITEM: BOX BOUNDS pp pp pp
4.8287345010473821e+00 3.0177265498953460e+01
4.8287345010473821e+00 3.0177265498953460e+01
4.8287345010473821e+00 3.0177265498953460e+01
ITEM: ATOMS id type x y z fx fy fz
1556 4 20.4789 23.5047 7.32895 -19.6211 -55.7439 -15.2707
1555 3 22.8944 17.7088 24.9067 1.95267 -18.3012 -25.5995
ITEM: TIMESTEP
60810
ITEM: NUMBER OF ATOMS
2
ITEM: BOX BOUNDS pp pp pp
4.8287459046302352e+00 3.0177254095370607e+01
4.8287459046302352e+00 3.0177254095370607e+01
4.8287459046302352e+00 3.0177254095370607e+01
ITEM: ATOMS id type x y z fx fy fz