ITEM: TIMESTEP
60000
ITEM: NUMBER OF ATOMS
2
ITEM: BOX BOUNDS pp pp pp
4.8289367145946063e+00 3.0177063285405453e+01
4.8289367145946063e+00 3.0177063285405453e+01
4.8289367145946063e+00 3.0177063285405453e+01
ITEM: ATOMS id type x y z fx fy fz
1556 4 23.0962 22.9823 13.2345 200.491 137.682 -172.37
1555 3 24.4857 26.8321 29.4324 0.213071 -16.3877 31.9411
ITEM: TIMESTEP
60010
ITEM: NUMBER OF ATOMS
2
ITEM: BOX BOUNDS pp pp pp
4.8289482515479278e+00 3.0177051748452126e+01
4.8289482515479278e+00 3.0177051748452126e+01
4.8289482515479278e+00 3.0177051748452126e+01
ITEM: ATOMS id type x y z fx fy fz
1556 4 23.118 22.996 13.2255 -24.3526 -185.237 167.608
1555 3 24.4744 26.8299 29.4339 9.21736 2.35087 -9.21938
ITEM: TIMESTEP
60020
ITEM: NUMBER OF ATOMS
2
ITEM: BOX BOUNDS pp pp pp
4.8289685826804050e+00 3.0177031417319647e+01
4.8289685826804050e+00 3.0177031417319647e+01
4.8289685826804050e+00 3.0177031417319647e+01
ITEM: ATOMS id type x y z fx fy fz
1556 4 23.1359 22.9975 13.2243 -211.859 41.4417 12.5571
1555 3 24.4638 26.8278 29.435 14.7652 11.6109 -26.5713
ITEM: TIMESTEP
60030
ITEM: NUMBER OF ATOMS
2
ITEM: BOX BOUNDS pp pp pp
4.8289971048725384e+00 3.0177002895127512e+01
4.8289971048725384e+00 3.0177002895127512e+01
4.8289971048725384e+00 3.0177002895127512e+01
ITEM: ATOMS id type x y z fx fy fz
1556 4 23.1402 22.9998 13.2254 42.5668 -47.8868 -135.377
1555 3 24.4542 26.8266 29.4341 18.4718 16.375 -32.6388
ITEM: TIMESTEP
60040
ITEM: NUMBER OF ATOMS
2
ITEM: BOX BOUNDS pp pp pp
4.8290336931516702e+00 3.0176966306848378e+01
4.8290336931516702e+00 3.0176966306848378e+01
4.8290336931516702e+00 3.0176966306848378e+01
ITEM: ATOMS id type x y z fx fy fz
1556 4 23.1458 23.001 13.2163 -3.60268 126.759 -61.6315
1555 3 24.4459 26.8265 29.4308 22.9271 25.1409 -48.7343
ITEM: TIMESTEP
60050
ITEM: NUMBER OF ATOMS
2
ITEM: BOX BOUNDS pp pp pp
4.8290764432950066e+00 3.0176923556705052e+01
4.8290764432950066e+00 3.0176923556705052e+01
4.8290764432950066e+00 3.0176923556705052e+01
ITEM: ATOMS id type x y z fx fy fz
1556 4 23.1492 23.0099 13.2027 -171.507 -42.6137 154.773
1555 3 24.4393 26.8283 29.4239 26.3478 34.1687 -67.233
ITEM: TIMESTEP
60060
ITEM: NUMBER OF ATOMS
2
ITEM: BOX BOUNDS pp pp pp
4.8291219157302852e+00 3.0176878084269774e+01
4.8291219157302852e+00 3.0176878084269774e+01
4.8291219157302852e+00 3.0176878084269774e+01
ITEM: ATOMS id type x y z fx fy fz
1556 4 23.1419 23.0156 13.2007 69.0604 -210.828 72.0065
1555 3 24.4346 26.8324 29.4124 22.9014 26.7296 -49.1012
ITEM: TIMESTEP
60070
ITEM: NUMBER OF ATOMS
2
ITEM: BOX BOUNDS pp pp pp
4.8291710693914265e+00 3.0176828930608632e+01
4.8291710693914265e+00 3.0176828930608632e+01
4.8291710693914265e+00 3.0176828930608632e+01
ITEM: ATOMS id type x y z fx fy fz
1556 4 23.1371 23.0074 13.2043 53.3433 153.149 -26.0464
1555 3 24.4315 26.8385 29.3974 14.4053 6.59836 -2.9471
ITEM: TIMESTEP
60080
ITEM: NUMBER OF ATOMS
2
ITEM: BOX BOUNDS pp pp pp
4.8292285228695864e+00 3.0176771477130472e+01
4.8292285228695864e+00 3.0176771477130472e+01
4.8292285228695864e+00 3.0176771477130472e+01
ITEM: ATOMS id type x y z fx fy fz
1556 4 23.1369 23.0093 13.2054 54.7524 193.22 -103.178
1555 3 24.4295 26.845 29.3822 7.31687 -9.69969 32.7975
ITEM: TIMESTEP
60090
ITEM: NUMBER OF ATOMS
2
ITEM: BOX BOUNDS pp pp pp
4.8292963032187117e+00 3.0176703696781349e+01
4.8292963032187117e+00 3.0176703696781349e+01
4.8292963032187117e+00 3.0176703696781349e+01
ITEM: ATOMS id type x y z fx fy fz
1556 4 23.1417 23.0236 13.2015 -3.7381 -174.749 171.631
1555 3 24.428 26.8509 29.3692 3.88679 -16.6489 45.772
ITEM: TIMESTEP
60100
ITEM: NUMBER OF ATOMS
2
ITEM: BOX BOUNDS pp pp pp
4.8293730810912425e+00 3.0176626918908820e+01
4.8293730810912425e+00 3.0176626918908820e+01
4.8293730810912425e+00 3.0176626918908820e+01
ITEM: ATOMS id type x y z fx fy fz
1556 4 23.1448 23.0274 13.2062 -80.3653 48.4236 -149.134
1555 3 24.4268 26.8555 29.3596 -1.19778 -29.898 73.4934
ITEM: TIMESTEP
60110
ITEM: NUMBER OF ATOMS
2
ITEM: BOX BOUNDS pp pp pp
4.8294626316730263e+00 3.0176537368327025e+01
4.8294626316730263e+00 3.0176537368327025e+01
4.8294626316730263e+00 3.0176537368327025e+01
ITEM: ATOMS id type x y z fx fy fz
1556 4 23.1458 23.0342 13.2034 115.873 142.026 -195.014
1555 3 24.4255 26.858 29.3552 -2.44445 -32.268 75.4201
ITEM: TIMESTEP
60120
ITEM: NUMBER OF ATOMS
2
ITEM: BOX BOUNDS pp pp pp
4.8295657468722144e+00 3.0176434253127834e+01
4.8295657468722144e+00 3.0176434253127834e+01
4.8295657468722144e+00 3.0176434253127834e+01
ITEM: ATOMS id type x y z fx fy fz
1556 4 23.1527 23.0516 13.1836 -111.688 -15.9409 52.5086
1555 3 24.4241 26.8582 29.3559 3.15401 -14.1661 28.6056
ITEM: TIMESTEP
60130
ITEM: NUMBER OF ATOMS
2
ITEM: BOX BOUNDS pp pp pp
4.8296779981316735e+00 3.0176322001868378e+01
4.8296779981316735e+00 3.0176322001868378e+01
4.8296779981316735e+00 3.0176322001868378e+01
ITEM: ATOMS id type x y z fx fy fz
1556 4 23.1531 23.0679 13.1664 -34.5023 -115.069 143.914
1555 3 24.4229 26.8574 29.3588 8.44665 3.13374 -16.5183
ITEM: TIMESTEP
60140
ITEM: NUMBER OF ATOMS
2
ITEM: BOX BOUNDS pp pp pp
4.8297933194517597e+00 3.0176206680548297e+01
4.8297933194517597e+00 3.0176206680548297e+01
4.8297933194517597e+00 3.0176206680548297e+01
ITEM: ATOMS id type x y z fx fy fz
1556 4 23.1504 23.0766 13.1596 37.7912 59.7392 -14.5277
1555 3 24.4223 26.8568 29.3606 10.3601 9.71346 -36.4573
ITEM: TIMESTEP
60150
ITEM: NUMBER OF ATOMS
2
ITEM: BOX BOUNDS pp pp pp
4.8299093010545331e+00 3.0176090698945522e+01
4.8299093010545331e+00 3.0176090698945522e+01
4.8299093010545331e+00 3.0176090698945522e+01
ITEM: ATOMS id type x y z fx fy fz
1556 4 23.1509 23.089 13.1533 94.3537 102.345 -16.8863
1555 3 24.4224 26.8569 29.3597 12.2243 14.9438 -53.8526
ITEM: TIMESTEP
60160
ITEM: NUMBER OF ATOMS
2
ITEM: BOX BOUNDS pp pp pp
4.8300225002692443e+00 3.0175977499730813e+01
4.8300225002692443e+00 3.0175977499730813e+01
4.8300225002692443e+00 3.0175977499730813e+01
ITEM: ATOMS id type x y z fx fy fz
1556 4 23.1577 23.1073 13.1458 -37.5189 -180.991 81.1374
1555 3 24.4235 26.8581 29.355 14.5239 19.7062 -70.8579
ITEM: TIMESTEP
60170
ITEM: NUMBER OF ATOMS
2
ITEM: BOX BOUNDS pp pp pp
4.8301296304752448e+00 3.0175870369524816e+01
4.8301296304752448e+00 3.0175870369524816e+01
4.8301296304752448e+00 3.0175870369524816e+01
ITEM: ATOMS id type x y z fx fy fz
1556 4 23.1618 23.1141 13.1455 -172.877 -12.5618 188.692
1555 3 24.4255 26.8606 29.3452 13.3398 11.5894 -57.024
ITEM: TIMESTEP
60180
ITEM: NUMBER OF ATOMS
2
ITEM: BOX BOUNDS pp pp pp
4.8302301575282822e+00 3.0175769842471777e+01
4.8302301575282822e+00 3.0175769842471777e+01
4.8302301575282822e+00 3.0175769842471777e+01
ITEM: ATOMS id type x y z fx fy fz
1556 4 23.1516 23.1187 13.1581 -118.295 25.9055 -137.07
1555 3 24.4286 26.8639 29.3316 8.29963 -10.5757 -9.00623
ITEM: TIMESTEP
60190
ITEM: NUMBER OF ATOMS
2
ITEM: BOX BOUNDS pp pp pp
4.8303298775243899e+00 3.0175670122475658e+01
4.8303298775243899e+00 3.0175670122475658e+01
4.8303298775243899e+00 3.0175670122475658e+01
ITEM: ATOMS id type x y z fx fy fz
1556 4 23.1337 23.1244 13.1606 207.795 -78.7437 -232.39
1555 3 24.4322 26.8664 29.3172 5.7097 -26.0873 24.0115
ITEM: TIMESTEP
60200
ITEM: NUMBER OF ATOMS
2
ITEM: BOX BOUNDS pp pp pp
4.8304313997597923e+00 3.0175568600240254e+01
4.8304313997597923e+00 3.0175568600240254e+01
4.8304313997597923e+00 3.0175568600240254e+01
ITEM: ATOMS id type x y z fx fy fz
1556 4 23.1263 23.1241 13.1454 -254.762 83.0199 138.382
1555 3 24.4363 26.8672 29.3043 7.55659 -27.2693 24.2928
ITEM: TIMESTEP
60210
ITEM: NUMBER OF ATOMS
2
ITEM: BOX BOUNDS pp pp pp
4.8305348050052093e+00 3.0175465194994835e+01
4.8305348050052093e+00 3.0175465194994835e+01
4.8305348050052093e+00 3.0175465194994835e+01
ITEM: ATOMS id type x y z fx fy fz
1556 4 23.1059 23.1301 13.1407 -13.7936 -1.15638 86.3312
1555 3 24.4409 26.8659 29.2932 7.11301 -31.7241 35.8185
ITEM: TIMESTEP
60220
ITEM: NUMBER OF ATOMS
2
ITEM: BOX BOUNDS pp pp pp
4.8306428114205886e+00 3.0175357188579451e+01
4.8306428114205886e+00 3.0175357188579451e+01
4.8306428114205886e+00 3.0175357188579451e+01
ITEM: ATOMS id type x y z fx fy fz
1556 4 23.0896 23.1379 13.1446 404.421 26.7991 -80.8618
1555 3 24.4461 26.8623 29.2848 4.8372 -36.8756 52.8662
ITEM: TIMESTEP
60230
ITEM: NUMBER OF ATOMS
2
ITEM: BOX BOUNDS pp pp pp
4.8307611310174803e+00 3.0175238868982575e+01
4.8307611310174803e+00 3.0175238868982575e+01
4.8307611310174803e+00 3.0175238868982575e+01
ITEM: ATOMS id type x y z fx fy fz
1556 4 23.0987 23.1471 13.1412 -202.121 100.761 71.1121
1555 3 24.4516 26.8561 29.2801 5.79186 -29.0455 41.4438
ITEM: TIMESTEP
60240
ITEM: NUMBER OF ATOMS
2
ITEM: BOX BOUNDS pp pp pp
4.8308927812003830e+00 3.0175107218799674e+01
4.8308927812003830e+00 3.0175107218799674e+01
4.8308927812003830e+00 3.0175107218799674e+01
ITEM: ATOMS id type x y z fx fy fz
1556 4 23.0991 23.1638 13.1441 -27.5037 -74.9921 55.4621
1555 3 24.4575 26.8478 29.2784 5.89641 -20.6959 30.848
ITEM: TIMESTEP
60250
ITEM: NUMBER OF ATOMS
2
ITEM: BOX BOUNDS pp pp pp
4.8310385600787757e+00 3.0174961439921290e+01
4.8310385600787757e+00 3.0174961439921290e+01
4.8310385600787757e+00 3.0174961439921290e+01
ITEM: ATOMS id type x y z fx fy fz
1556 4 23.095 23.175 13.1492 74.3223 -75.909 -207.139
1555 3 24.4638 26.838 29.2789 5.12054 -13.8458 24.4091
ITEM: TIMESTEP
60260
ITEM: NUMBER OF ATOMS
2
ITEM: BOX BOUNDS pp pp pp
4.8311996603900713e+00 3.0174800339609991e+01
4.8311996603900713e+00 3.0174800339609991e+01
4.8311996603900713e+00 3.0174800339609991e+01
ITEM: ATOMS id type x y z fx fy fz
1556 4 23.0951 23.1808 13.1402 -50.3508 68.2359 -33.7049
1555 3 24.4705 26.8272 29.281 8.01411 2.32022 -6.17372
ITEM: TIMESTEP
60270
ITEM: NUMBER OF ATOMS
2
ITEM: BOX BOUNDS pp pp pp
4.8313704332708713e+00 3.0174629566729191e+01
4.8313704332708713e+00 3.0174629566729191e+01
4.8313704332708713e+00 3.0174629566729191e+01
ITEM: ATOMS id type x y z fx fy fz
1556 4 23.0927 23.1897 13.1277 -20.3327 -121.6 32.8758
1555 3 24.4778 26.8165 29.2827 12.0122 20.0101 -42.1045
ITEM: TIMESTEP
60280
ITEM: NUMBER OF ATOMS
2
ITEM: BOX BOUNDS pp pp pp
4.8315451596728902e+00 3.0174454840327172e+01
4.8315451596728902e+00 3.0174454840327172e+01
4.8315451596728902e+00 3.0174454840327172e+01
ITEM: ATOMS id type x y z fx fy fz
1556 4 23.0873 23.1896 13.1163 -43.9773 -97.4191 15.1639
1555 3 24.486 26.8073 29.2813 13.9284 30.8131 -62.1677
ITEM: TIMESTEP
60290
ITEM: NUMBER OF ATOMS
2
ITEM: BOX BOUNDS pp pp pp
4.8317171860621055e+00 3.0174282813937964e+01
4.8317171860621055e+00 3.0174282813937964e+01
4.8317171860621055e+00 3.0174282813937964e+01
ITEM: ATOMS id type x y z fx fy fz
1556 4 23.0783 23.1818 13.1081 -84.947 7.41627 91.2951
1555 3 24.4952 26.8002 29.2756 12.6828 32.6842 -60.8456
ITEM: TIMESTEP
60300
ITEM: NUMBER OF ATOMS
2
ITEM: BOX BOUNDS pp pp pp
4.8318850002151734e+00 3.0174114999784891e+01
4.8318850002151734e+00 3.0174114999784891e+01
4.8318850002151734e+00 3.0174114999784891e+01
ITEM: ATOMS id type x y z fx fy fz
1556 4 23.0661 23.1731 13.108 174.21 -20.0739 79.6593
1555 3 24.5052 26.7955 29.2656 7.42907 24.2799 -34.6838
ITEM: TIMESTEP
60310
ITEM: NUMBER OF ATOMS
2
ITEM: BOX BOUNDS pp pp pp
4.8320486132437281e+00 3.0173951386756329e+01
4.8320486132437281e+00 3.0173951386756329e+01
4.8320486132437281e+00 3.0173951386756329e+01
ITEM: ATOMS id type x y z fx fy fz
1556 4 23.0645 23.1643 13.1123 -22.5333 65.028 -21.6791
1555 3 24.5158 26.7925 29.2532 0.16283 11.3683 1.77379
ITEM: TIMESTEP
60320
ITEM: NUMBER OF ATOMS
2
ITEM: BOX BOUNDS pp pp pp
4.8322121207087232e+00 3.0173787879291329e+01
4.8322121207087232e+00 3.0173787879291329e+01
4.8322121207087232e+00 3.0173787879291329e+01
ITEM: ATOMS id type x y z fx fy fz
1556 4 23.0638 23.1569 13.1176 -56.564 -136.229 116.273
1555 3 24.5265 26.7903 29.2408 -7.71117 -2.28745 39.0463
ITEM: TIMESTEP
60330
ITEM: NUMBER OF ATOMS
2
ITEM: BOX BOUNDS pp pp pp
4.8323824453888431e+00 3.0173617554611209e+01
4.8323824453888431e+00 3.0173617554611209e+01
4.8323824453888431e+00 3.0173617554611209e+01
ITEM: ATOMS id type x y z fx fy fz
1556 4 23.0573 23.1438 13.1276 18.4201 219.37 -118.019
1555 3 24.5365 26.788 29.2314 -17.3768 -19.4301 83.9796
ITEM: TIMESTEP
60340
ITEM: NUMBER OF ATOMS
2
ITEM: BOX BOUNDS pp pp pp
4.8325685849337194e+00 3.0173431415066332e+01
4.8325685849337194e+00 3.0173431415066332e+01
4.8325685849337194e+00 3.0173431415066332e+01
ITEM: ATOMS id type x y z fx fy fz
1556 4 23.0524 23.1429 13.1264 106.955 -98.3858 -281.312
1555 3 24.5453 26.7843 29.2278 -21.2215 -21.3667 89.5699
ITEM: TIMESTEP
60350
ITEM: NUMBER OF ATOMS
2
ITEM: BOX BOUNDS pp pp pp
4.8327750079077845e+00 3.0173224992092265e+01
4.8327750079077845e+00 3.0173224992092265e+01
4.8327750079077845e+00 3.0173224992092265e+01
ITEM: ATOMS id type x y z fx fy fz
1556 4 23.0556 23.1373 13.1081 -48.3204 -45.0763 168.666
1555 3 24.5526 26.7791 29.2305 -18.6417 -7.80238 54.6764
ITEM: TIMESTEP
60360
ITEM: NUMBER OF ATOMS
2
ITEM: BOX BOUNDS pp pp pp
4.8329969375274349e+00 3.0173003062472620e+01
4.8329969375274349e+00 3.0173003062472620e+01
4.8329969375274349e+00 3.0173003062472620e+01
ITEM: ATOMS id type x y z fx fy fz
1556 4 23.054 23.1271 13.0988 -120.471 32.957 52.5392
1555 3 24.5586 26.7733 29.2372 -17.7074 1.00536 30.9607
ITEM: TIMESTEP
60370
ITEM: NUMBER OF ATOMS
2
ITEM: BOX BOUNDS pp pp pp
4.8332315835775805e+00 3.0172768416422471e+01
4.8332315835775805e+00 3.0172768416422471e+01
4.8332315835775805e+00 3.0172768416422471e+01
ITEM: ATOMS id type x y z fx fy fz
1556 4 23.0468 23.1188 13.0952 266.027 -21.4213 -82.8259
1555 3 24.5632 26.7675 29.2462 -17.0993 7.45093 12.5658
ITEM: TIMESTEP
60380
ITEM: NUMBER OF ATOMS
2
ITEM: BOX BOUNDS pp pp pp
4.8334739248312530e+00 3.0172526075168808e+01
4.8334739248312530e+00 3.0172526075168808e+01
4.8334739248312530e+00 3.0172526075168808e+01
ITEM: ATOMS id type x y z fx fy fz
1556 4 23.0578 23.1088 13.0842 51.8162 -50.2575 -73.5676
1555 3 24.5666 26.7624 29.2559 -12.6623 20.8802 -23.7527
ITEM: TIMESTEP
60390
ITEM: NUMBER OF ATOMS
2
ITEM: BOX BOUNDS pp pp pp
4.8337171229472524e+00 3.0172282877052808e+01
4.8337171229472524e+00 3.0172282877052808e+01
4.8337171229472524e+00 3.0172282877052808e+01
ITEM: ATOMS id type x y z fx fy fz
1556 4 23.0736 23.0948 13.0716 -198.695 -40.9855 316.251
1555 3 24.5691 26.7587 29.264 -7.74106 33.4349 -57.6641
ITEM: TIMESTEP
60400
ITEM: NUMBER OF ATOMS
2
ITEM: BOX BOUNDS pp pp pp
4.8339523566791680e+00 3.0172047643320880e+01
4.8339523566791680e+00 3.0172047643320880e+01
4.8339523566791680e+00 3.0172047643320880e+01
ITEM: ATOMS id type x y z fx fy fz
1556 4 23.0743 23.0763 13.0794 -57.3689 -135.12 -104.307
1555 3 24.571 26.7574 29.2682 -10.1094 26.1212 -41.7435
ITEM: TIMESTEP
60410
ITEM: NUMBER OF ATOMS
2
ITEM: BOX BOUNDS pp pp pp
4.8341797803727538e+00 3.0171820219627293e+01
4.8341797803727538e+00 3.0171820219627293e+01
4.8341797803727538e+00 3.0171820219627293e+01
ITEM: ATOMS id type x y z fx fy fz
1556 4 23.0694 23.0479 13.0817 15.5245 64.6107 -181.681
1555 3 24.5722 26.758 29.2694 -12.5509 16.8569 -20.6517
ITEM: TIMESTEP
60420
ITEM: NUMBER OF ATOMS
2
ITEM: BOX BOUNDS pp pp pp
4.8343991630530816e+00 3.0171600836946958e+01
4.8343991630530816e+00 3.0171600836946958e+01
4.8343991630530816e+00 3.0171600836946958e+01
ITEM: ATOMS id type x y z fx fy fz
1556 4 23.0636 23.0251 13.0681 -168.764 90.594 -53.6259
1555 3 24.5724 26.7598 29.2689 -10.0635 18.3951 -25.6545
ITEM: TIMESTEP
60430
ITEM: NUMBER OF ATOMS
2
ITEM: BOX BOUNDS pp pp pp
4.8346106988472926e+00 3.0171389301152750e+01
4.8346106988472926e+00 3.0171389301152750e+01
4.8346106988472926e+00 3.0171389301152750e+01
ITEM: ATOMS id type x y z fx fy fz
1556 4 23.0487 23.005 13.054 92.2689 -270.451 261.685
1555 3 24.572 26.763 29.2666 -7.79952 18.595 -26.5862
ITEM: TIMESTEP
60440
ITEM: NUMBER OF ATOMS
2
ITEM: BOX BOUNDS pp pp pp
4.8348156954917929e+00 3.0171184304508252e+01
4.8348156954917929e+00 3.0171184304508252e+01
4.8348156954917929e+00 3.0171184304508252e+01
ITEM: ATOMS id type x y z fx fy fz
1556 4 23.0371 22.9698 13.0558 153.754 254.497 10.9859
1555 3 24.5709 26.7675 29.2626 -12.0629 2.43171 12.5914
ITEM: TIMESTEP
60450
ITEM: NUMBER OF ATOMS
2
ITEM: BOX BOUNDS pp pp pp
4.8350244362469592e+00 3.0170975563753089e+01
4.8350244362469592e+00 3.0170975563753089e+01
4.8350244362469592e+00 3.0170975563753089e+01
ITEM: ATOMS id type x y z fx fy fz
1556 4 23.0371 22.9482 13.0602 123.587 -3.94237 -63.3679
1555 3 24.569 26.7721 29.2595 -14.4923 -9.53386 42.0399
ITEM: TIMESTEP
60460
ITEM: NUMBER OF ATOMS
2
ITEM: BOX BOUNDS pp pp pp
4.8352463705099638e+00 3.0170753629490086e+01
4.8352463705099638e+00 3.0170753629490086e+01
4.8352463705099638e+00 3.0170753629490086e+01
ITEM: ATOMS id type x y z fx fy fz
1556 4 23.0464 22.9297 13.0617 -38.3305 35.7495 95.5223
1555 3 24.5661 26.7761 29.2593 -14.1159 -14.8988 56.3355
ITEM: TIMESTEP
60470
ITEM: NUMBER OF ATOMS
2
ITEM: BOX BOUNDS pp pp pp
4.8354871766190382e+00 3.0170512823381010e+01
4.8354871766190382e+00 3.0170512823381010e+01
4.8354871766190382e+00 3.0170512823381010e+01
ITEM: ATOMS id type x y z fx fy fz
1556 4 23.0531 22.9115 13.0681 -49.9937 -125.047 -63.1971
1555 3 24.5621 26.779 29.2632 -13.6368 -20.0499 70.9083
ITEM: TIMESTEP
60480
ITEM: NUMBER OF ATOMS
2
ITEM: BOX BOUNDS pp pp pp
4.8357516778923433e+00 3.0170248322107703e+01
4.8357516778923433e+00 3.0170248322107703e+01
4.8357516778923433e+00 3.0170248322107703e+01
ITEM: ATOMS id type x y z fx fy fz
1556 4 23.0567 22.8868 13.0698 -19.0111 140.745 -170.318
1555 3 24.557 26.7805 29.2721 -10.8919 -19.5689 72.7637
ITEM: TIMESTEP
60490
ITEM: NUMBER OF ATOMS
2
ITEM: BOX BOUNDS pp pp pp
4.8360400693342402e+00 3.0169959930665804e+01
4.8360400693342402e+00 3.0169959930665804e+01
4.8360400693342402e+00 3.0169959930665804e+01
ITEM: ATOMS id type x y z fx fy fz
1556 4 23.0583 22.8712 13.0577 -3.82094 101.522 -111.255
1555 3 24.5513 26.7806 29.2861 -1.54409 -2.05551 35.7103
ITEM: TIMESTEP
60500
ITEM: NUMBER OF ATOMS
2
ITEM: BOX BOUNDS pp pp pp
4.8363452798722477e+00 3.0169654720127802e+01
4.8363452798722477e+00 3.0169654720127802e+01
4.8363452798722477e+00 3.0169654720127802e+01
ITEM: ATOMS id type x y z fx fy fz
1556 4 23.0583 22.8637 13.035 -54.8607 -74.4101 -20.5912
1555 3 24.5454 26.7807 29.3026 12.2792 27.5423 -28.5778
ITEM: TIMESTEP
60510
ITEM: NUMBER OF ATOMS
2
ITEM: BOX BOUNDS pp pp pp
4.8366549924774116e+00 3.0169345007522637e+01
4.8366549924774116e+00 3.0169345007522637e+01
4.8366549924774116e+00 3.0169345007522637e+01
ITEM: ATOMS id type x y z fx fy fz
1556 4 23.0543 22.8503 13.0128 -79.6968 -154.014 261.988
1555 3 24.5404 26.7827 29.317 23.5034 52.0117 -81.0534
ITEM: TIMESTEP
60520
ITEM: NUMBER OF ATOMS
2
ITEM: BOX BOUNDS pp pp pp
4.8369580039434066e+00 3.0169041996056638e+01
4.8369580039434066e+00 3.0169041996056638e+01
4.8369580039434066e+00 3.0169041996056638e+01
ITEM: ATOMS id type x y z fx fy fz
1556 4 23.0432 22.8269 13.008 105.97 171.266 81.9455
1555 3 24.5371 26.7883 29.3259 24.8155 53.3953 -82.2
ITEM: TIMESTEP
60530
ITEM: NUMBER OF ATOMS
2
ITEM: BOX BOUNDS pp pp pp
4.8372512346333121e+00 3.0168748765366729e+01
4.8372512346333121e+00 3.0168748765366729e+01
4.8372512346333121e+00 3.0168748765366729e+01
ITEM: ATOMS id type x y z fx fy fz
1556 4 23.0406 22.8133 13.0094 191.906 -7.20944 -136.88
1555 3 24.5355 26.7979 29.3289 21.9427 46.8613 -68.0543
ITEM: TIMESTEP
60540
ITEM: NUMBER OF ATOMS
2
ITEM: BOX BOUNDS pp pp pp
4.8375359552932782e+00 3.0168464044706759e+01
4.8375359552932782e+00 3.0168464044706759e+01
4.8375359552932782e+00 3.0168464044706759e+01
ITEM: ATOMS id type x y z fx fy fz
1556 4 23.0518 22.7989 13.0098 -196.521 -113.693 364.536
1555 3 24.5355 26.8108 29.3269 16.8058 36.301 -47.1014
ITEM: TIMESTEP
60550
ITEM: NUMBER OF ATOMS
2
ITEM: BOX BOUNDS pp pp pp
4.8378169150791326e+00 3.0168183084920898e+01
4.8378169150791326e+00 3.0168183084920898e+01
4.8378169150791326e+00 3.0168183084920898e+01
ITEM: ATOMS id type x y z fx fy fz
1556 4 23.0491 22.7764 13.0305 -49.1079 45.0013 -212.064
1555 3 24.5367 26.8262 29.3219 3.04184 2.5919 23.7815
ITEM: TIMESTEP
60560
ITEM: NUMBER OF ATOMS
2
ITEM: BOX BOUNDS pp pp pp
4.8381099823615834e+00 3.0167890017638445e+01
4.8381099823615834e+00 3.0167890017638445e+01
4.8381099823615834e+00 3.0167890017638445e+01
ITEM: ATOMS id type x y z fx fy fz
1556 4 23.0417 22.7559 13.039 146.61 46.7922 -229.931
1555 3 24.5382 26.8419 29.3184 -6.88241 -21.4675 71.6206
ITEM: TIMESTEP
60570
ITEM: NUMBER OF ATOMS
2
ITEM: BOX BOUNDS pp pp pp
4.8384270730877592e+00 3.0167572926912264e+01
4.8384270730877592e+00 3.0167572926912264e+01
4.8384270730877592e+00 3.0167572926912264e+01
ITEM: ATOMS id type x y z fx fy fz
1556 4 23.0421 22.7399 13.0271 -173.29 141.873 -20.2146
1555 3 24.5392 26.8561 29.3198 -8.56971 -23.8926 70.7764
ITEM: TIMESTEP
60580
ITEM: NUMBER OF ATOMS
2
ITEM: BOX BOUNDS pp pp pp
4.8387728080696579e+00 3.0167227191930365e+01
4.8387728080696579e+00 3.0167227191930365e+01
4.8387728080696579e+00 3.0167227191930365e+01
ITEM: ATOMS id type x y z fx fy fz
1556 4 23.0329 22.7337 13.0143 8.55452 -101.821 177.328
1555 3 24.5395 26.8686 29.3262 -7.59229 -18.8243 53.5635
ITEM: TIMESTEP
60590
ITEM: NUMBER OF ATOMS
2
ITEM: BOX BOUNDS pp pp pp
4.8391453573363918e+00 3.0166854642663630e+01
4.8391453573363918e+00 3.0166854642663630e+01
4.8391453573363918e+00 3.0166854642663630e+01
ITEM: ATOMS id type x y z fx fy fz
1556 4 23.0228 22.7219 13.0117 136.14 64.8281 -179.512
1555 3 24.5393 26.8797 29.3367 -8.78523 -19.7061 49.3321
ITEM: TIMESTEP
60600
ITEM: NUMBER OF ATOMS
2
ITEM: BOX BOUNDS pp pp pp
4.8395443130633033e+00 3.0166455686936711e+01
4.8395443130633033e+00 3.0166455686936711e+01
4.8395443130633033e+00 3.0166455686936711e+01
ITEM: ATOMS id type x y z fx fy fz
1556 4 23.0241 22.715 12.9992 128.586 170.467 -25.0295
1555 3 24.5385 26.8895 29.3505 -4.83735 -6.74192 15.5945
ITEM: TIMESTEP
60610
ITEM: NUMBER OF ATOMS
2
ITEM: BOX BOUNDS pp pp pp
4.8399614461608991e+00 3.0166038553839119e+01
4.8399614461608991e+00 3.0166038553839119e+01
4.8399614461608991e+00 3.0166038553839119e+01
ITEM: ATOMS id type x y z fx fy fz
1556 4 23.0342 22.7201 12.9844 -101.993 -52.9731 233.941
1555 3 24.5373 26.8988 29.3653 2.09886 14.4347 -34.8943
ITEM: TIMESTEP
60620
ITEM: NUMBER OF ATOMS
2
ITEM: BOX BOUNDS pp pp pp
4.8403859668956066e+00 3.0165614033104411e+01
4.8403859668956066e+00 3.0165614033104411e+01
4.8403859668956066e+00 3.0165614033104411e+01
ITEM: ATOMS id type x y z fx fy fz
1556 4 23.0387 22.7233 12.9855 -8.53647 -59.231 14.711
1555 3 24.5362 26.909 29.3777 3.56552 20.3049 -51.9847
ITEM: TIMESTEP
60630
ITEM: NUMBER OF ATOMS
2
ITEM: BOX BOUNDS pp pp pp
4.8408104975942194e+00 3.0165189502405802e+01
4.8408104975942194e+00 3.0165189502405802e+01
4.8408104975942194e+00 3.0165189502405802e+01
ITEM: ATOMS id type x y z fx fy fz
1556 4 23.0431 22.7203 12.9898 30.567 -48.4179 -80.4278
1555 3 24.5354 26.9207 29.3866 2.36423 18.2422 -51.5029
ITEM: TIMESTEP
60640
ITEM: NUMBER OF ATOMS
2
ITEM: BOX BOUNDS pp pp pp
4.8412307721334997e+00 3.0164769227866522e+01
4.8412307721334997e+00 3.0164769227866522e+01
4.8412307721334997e+00 3.0164769227866522e+01
ITEM: ATOMS id type x y z fx fy fz
1556 4 23.0459 22.716 12.9842 -212.201 89.3145 -93.6211
1555 3 24.5347 26.9337 29.3916 2.67637 19.531 -57.3944
ITEM: TIMESTEP
60650
ITEM: NUMBER OF ATOMS
2
ITEM: BOX BOUNDS pp pp pp
4.8416437246207771e+00 3.0164356275379248e+01
4.8416437246207771e+00 3.0164356275379248e+01
4.8416437246207771e+00 3.0164356275379248e+01
ITEM: ATOMS id type x y z fx fy fz
1556 4 23.0349 22.7137 12.9755 -18.4174 -208.74 164.542
1555 3 24.5343 26.9482 29.3925 2.59754 18.35 -57.3622
ITEM: TIMESTEP
60660
ITEM: NUMBER OF ATOMS
2
ITEM: BOX BOUNDS pp pp pp
4.8420498214419361e+00 3.0163950178558089e+01
4.8420498214419361e+00 3.0163950178558089e+01
4.8420498214419361e+00 3.0163950178558089e+01
ITEM: ATOMS id type x y z fx fy fz
1556 4 23.0217 22.6987 12.9762 168.317 92.2701 -86.2337
1555 3 24.534 26.9639 29.3894 -2.52722 1.4689 -23.8798
ITEM: TIMESTEP
60670
ITEM: NUMBER OF ATOMS
2
ITEM: BOX BOUNDS pp pp pp
4.8424575882756571e+00 3.0163542411724357e+01
4.8424575882756571e+00 3.0163542411724357e+01
4.8424575882756571e+00 3.0163542411724357e+01
ITEM: ATOMS id type x y z fx fy fz
1556 4 23.019 22.6888 12.9733 -41.1684 62.6943 44.919
1555 3 24.5335 26.9797 29.3845 -5.50914 -11.1691 0.909768
ITEM: TIMESTEP
60680
ITEM: NUMBER OF ATOMS
2
ITEM: BOX BOUNDS pp pp pp
4.8428738147687529e+00 3.0163126185231256e+01
4.8428738147687529e+00 3.0163126185231256e+01
4.8428738147687529e+00 3.0163126185231256e+01
ITEM: ATOMS id type x y z fx fy fz
1556 4 23.0164 22.6844 12.9763 33.818 1.15491 160.596
1555 3 24.5326 26.9947 29.3798 -8.66841 -26.0024 30.4105
ITEM: TIMESTEP
60690
ITEM: NUMBER OF ATOMS
2
ITEM: BOX BOUNDS pp pp pp
4.8433061510094504e+00 3.0162693848990564e+01
4.8433061510094504e+00 3.0162693848990564e+01
4.8433061510094504e+00 3.0162693848990564e+01
ITEM: ATOMS id type x y z fx fy fz
1556 4 23.0146 22.6801 12.9878 98.0786 -28.1516 -248.748
1555 3 24.5311 27.0078 29.3772 -12.7577 -44.4676 67.6185
ITEM: TIMESTEP
60700
ITEM: NUMBER OF ATOMS
2
ITEM: BOX BOUNDS pp pp pp
4.8437613763853324e+00 3.0162238623614680e+01
4.8437613763853324e+00 3.0162238623614680e+01
4.8437613763853324e+00 3.0162238623614680e+01
ITEM: ATOMS id type x y z fx fy fz
1556 4 23.0214 22.6742 12.9838 25.2979 46.094 -63.3213
1555 3 24.5287 27.0178 29.3794 -10.6044 -45.0485 68.2872
ITEM: TIMESTEP
60710
ITEM: NUMBER OF ATOMS
2
ITEM: BOX BOUNDS pp pp pp
4.8442390350780560e+00 3.0161760964921953e+01
4.8442390350780560e+00 3.0161760964921953e+01
4.8442390350780560e+00 3.0161760964921953e+01
ITEM: ATOMS id type x y z fx fy fz
1556 4 23.0292 22.6718 12.9726 -177.47 56.9797 64.6495
1555 3 24.5255 27.0245 29.3863 -4.56436 -32.8115 43.4393
ITEM: TIMESTEP
60720
ITEM: NUMBER OF ATOMS
2
ITEM: BOX BOUNDS pp pp pp
4.8447321452123511e+00 3.0161267854787656e+01
4.8447321452123511e+00 3.0161267854787656e+01
4.8447321452123511e+00 3.0161267854787656e+01
ITEM: ATOMS id type x y z fx fy fz
1556 4 23.0253 22.6746 12.9663 37.5938 7.91959 9.86474
1555 3 24.522 27.0289 29.3964 1.02715 -19.5757 17.3234
ITEM: TIMESTEP
60730
ITEM: NUMBER OF ATOMS
2
ITEM: BOX BOUNDS pp pp pp
4.8452324647476086e+00 3.0160767535252390e+01
4.8452324647476086e+00 3.0160767535252390e+01
4.8452324647476086e+00 3.0160767535252390e+01
ITEM: ATOMS id type x y z fx fy fz
1556 4 23.0227 22.6766 12.9585 194.377 -179.149 -178.841
1555 3 24.5185 27.0318 29.4077 6.97463 -3.33358 -14.562
ITEM: TIMESTEP
60740
ITEM: NUMBER OF ATOMS
2
ITEM: BOX BOUNDS pp pp pp
4.8457292951217443e+00 3.0160270704878261e+01
4.8457292951217443e+00 3.0160270704878261e+01
4.8457292951217443e+00 3.0160270704878261e+01
ITEM: ATOMS id type x y z fx fy fz
1556 4 23.0332 22.6682 12.9408 -165.98 151.047 179.244
1555 3 24.5156 27.0345 29.4178 13.9207 17.8167 -56.2547
ITEM: TIMESTEP
60750
ITEM: NUMBER OF ATOMS
2
ITEM: BOX BOUNDS pp pp pp
4.8462114572608712e+00 3.0159788542739129e+01
4.8462114572608712e+00 3.0159788542739129e+01
4.8462114572608712e+00 3.0159788542739129e+01
ITEM: ATOMS id type x y z fx fy fz
1556 4 23.0355 22.6691 12.9384 -35.1624 -63.3275 255.797
1555 3 24.5136 27.0385 29.4241 15.6986 25.4765 -71.1034
ITEM: TIMESTEP
60760
ITEM: NUMBER OF ATOMS
2
ITEM: BOX BOUNDS pp pp pp
4.8466755671026807e+00 3.0159324432897328e+01
4.8466755671026807e+00 3.0159324432897328e+01
4.8466755671026807e+00 3.0159324432897328e+01
ITEM: ATOMS id type x y z fx fy fz
1556 4 23.0356 22.6662 12.9504 187.613 -102.464 -345.711
1555 3 24.5128 27.0442 29.4255 10.8518 15.2142 -50.3914
ITEM: TIMESTEP
60770
ITEM: NUMBER OF ATOMS
2
ITEM: BOX BOUNDS pp pp pp
4.8471251101627342e+00 3.0158874889837286e+01
4.8471251101627342e+00 3.0158874889837286e+01
4.8471251101627342e+00 3.0158874889837286e+01
ITEM: ATOMS id type x y z fx fy fz
1556 4 23.0492 22.655 12.9452 -174.8 13.3251 294.242
1555 3 24.5128 27.0511 29.423 8.15672 13.0214 -46.1653
ITEM: TIMESTEP
60780
ITEM: NUMBER OF ATOMS
2
ITEM: BOX BOUNDS pp pp pp
4.8475660087444847e+00 3.0158433991255531e+01
4.8475660087444847e+00 3.0158433991255531e+01
4.8475660087444847e+00 3.0158433991255531e+01
ITEM: ATOMS id type x y z fx fy fz
1556 4 23.0499 22.6439 12.955 -151.82 5.07575 67.7891
1555 3 24.5133 27.0588 29.4174 -0.286524 -5.4367 -9.62837
ITEM: TIMESTEP
60790
ITEM: NUMBER OF ATOMS
2
ITEM: BOX BOUNDS pp pp pp
4.8480080943544248e+00 3.0157991905645595e+01
4.8480080943544248e+00 3.0157991905645595e+01
4.8480080943544248e+00 3.0157991905645595e+01
ITEM: ATOMS id type x y z fx fy fz
1556 4 23.0406 22.6336 12.9699 185.111 21.5414 -305.214
1555 3 24.5138 27.0661 29.4112 -10.6525 -28.9719 36.9958
ITEM: TIMESTEP
60800
ITEM: NUMBER OF ATOMS
2
ITEM: BOX BOUNDS pp pp pp
4.8484621991449544e+00 3.0157537800855057e+01
4.8484621991449544e+00 3.0157537800855057e+01
4.8484621991449544e+00 3.0157537800855057e+01
ITEM: ATOMS id type x y z fx fy fz
1556 4 23.0434 22.6236 12.9649 15.1461 -138.611 70.0989
1555 3 24.5136 27.0714 29.4074 -14.25 -32.2429 43.1944
ITEM: TIMESTEP
60810
ITEM: NUMBER OF ATOMS
2
ITEM: BOX BOUNDS pp pp pp
4.8489318449556258e+00 3.0157068155044378e+01
4.8489318449556258e+00 3.0157068155044378e+01
4.8489318449556258e+00 3.0157068155044378e+01
ITEM: ATOMS id type x y z fx fy fz