ITEM: TIMESTEP
60000
ITEM: NUMBER OF ATOMS
2
ITEM: BOX BOUNDS pp pp pp
4.8567434421370486e+00 3.0149256557861925e+01
4.8567434421370486e+00 3.0149256557861925e+01
4.8567434421370486e+00 3.0149256557861925e+01
ITEM: ATOMS id type x y z fx fy fz
1556 4 21.2745 20.9543 13.3805 130.344 -171.35 88.6316
1555 3 19.7247 21.1098 28.8228 -11.7737 25.6708 -57.3313
ITEM: TIMESTEP
60010
ITEM: NUMBER OF ATOMS
2
ITEM: BOX BOUNDS pp pp pp
4.8569413280648686e+00 3.0149058671934107e+01
4.8569413280648686e+00 3.0149058671934107e+01
4.8569413280648686e+00 3.0149058671934107e+01
ITEM: ATOMS id type x y z fx fy fz
1556 4 21.2848 20.9475 13.3868 5.86411 107.75 19.0352
1555 3 19.7236 21.1094 28.8122 -5.03526 27.6995 -20.5837
ITEM: TIMESTEP
60020
ITEM: NUMBER OF ATOMS
2
ITEM: BOX BOUNDS pp pp pp
4.8571397049293061e+00 3.0148860295069674e+01
4.8571397049293061e+00 3.0148860295069674e+01
4.8571397049293061e+00 3.0148860295069674e+01
ITEM: ATOMS id type x y z fx fy fz
1556 4 21.2983 20.9464 13.3963 -19.0512 31.7448 -45.4913
1555 3 19.7222 21.1109 28.8001 4.0831 27.4663 26.6031
ITEM: TIMESTEP
60030
ITEM: NUMBER OF ATOMS
2
ITEM: BOX BOUNDS pp pp pp
4.8573449562978581e+00 3.0148655043701130e+01
4.8573449562978581e+00 3.0148655043701130e+01
4.8573449562978581e+00 3.0148655043701130e+01
ITEM: ATOMS id type x y z fx fy fz
1556 4 21.3093 20.9483 13.4013 -113.065 -67.4687 -164.648
1555 3 19.7211 21.1144 28.7898 11.6187 25.6908 60.3252
ITEM: TIMESTEP
60040
ITEM: NUMBER OF ATOMS
2
ITEM: BOX BOUNDS pp pp pp
4.8575611770426423e+00 3.0148438822956351e+01
4.8575611770426423e+00 3.0148438822956351e+01
4.8575611770426423e+00 3.0148438822956351e+01
ITEM: ATOMS id type x y z fx fy fz
1556 4 21.3104 20.9468 13.3941 -85.5225 53.1639 -46.1945
1555 3 19.7208 21.1198 28.7837 13.6693 23.373 58.6252
ITEM: TIMESTEP
60050
ITEM: NUMBER OF ATOMS
2
ITEM: BOX BOUNDS pp pp pp
4.8577859138626778e+00 3.0148214086136313e+01
4.8577859138626778e+00 3.0148214086136313e+01
4.8577859138626778e+00 3.0148214086136313e+01
ITEM: ATOMS id type x y z fx fy fz
1556 4 21.3045 20.9478 13.3806 -30.3863 -57.6634 -29.2724
1555 3 19.7215 21.1269 28.7817 12.022 20.8586 33.8653
ITEM: TIMESTEP
60060
ITEM: NUMBER OF ATOMS
2
ITEM: BOX BOUNDS pp pp pp
4.8580151259427264e+00 3.0147984874056256e+01
4.8580151259427264e+00 3.0147984874056256e+01
4.8580151259427264e+00 3.0147984874056256e+01
ITEM: ATOMS id type x y z fx fy fz
1556 4 21.2967 20.9469 13.3653 133.528 135.226 -20.3178
1555 3 19.723 21.1355 28.7822 8.83288 18.1139 -0.23996
ITEM: TIMESTEP
60070
ITEM: NUMBER OF ATOMS
2
ITEM: BOX BOUNDS pp pp pp
4.8582433427280733e+00 3.0147756657270911e+01
4.8582433427280733e+00 3.0147756657270911e+01
4.8582433427280733e+00 3.0147756657270911e+01
ITEM: ATOMS id type x y z fx fy fz
1556 4 21.2995 20.9512 13.3495 141.914 -214.267 141.151
1555 3 19.7252 21.1454 28.7826 5.83067 15.1206 -32.1661
ITEM: TIMESTEP
60080
ITEM: NUMBER OF ATOMS
2
ITEM: BOX BOUNDS pp pp pp
4.8584673338605882e+00 3.0147532666138389e+01
4.8584673338605882e+00 3.0147532666138389e+01
4.8584673338605882e+00 3.0147532666138389e+01
ITEM: ATOMS id type x y z fx fy fz
1556 4 21.313 20.9464 13.3429 17.8523 252.79 86.5725
1555 3 19.7278 21.1564 28.7809 6.62735 11.5988 -37.7749
ITEM: TIMESTEP
60090
ITEM: NUMBER OF ATOMS
2
ITEM: BOX BOUNDS pp pp pp
4.8586898045517017e+00 3.0147310195447272e+01
4.8586898045517017e+00 3.0147310195447272e+01
4.8586898045517017e+00 3.0147310195447272e+01
ITEM: ATOMS id type x y z fx fy fz
1556 4 21.329 20.9547 13.3438 -63.5495 -82.8056 -68.5502
1555 3 19.731 21.1683 28.7765 10.2145 7.92564 -23.1326
ITEM: TIMESTEP
60100
ITEM: NUMBER OF ATOMS
2
ITEM: BOX BOUNDS pp pp pp
4.8589149620277254e+00 3.0147085037971252e+01
4.8589149620277254e+00 3.0147085037971252e+01
4.8589149620277254e+00 3.0147085037971252e+01
ITEM: ATOMS id type x y z fx fy fz
1556 4 21.3417 20.9593 13.3398 -6.87134 -60.5039 -90.5973
1555 3 19.7348 21.1807 28.7704 12.0865 4.97287 -15.4069
ITEM: TIMESTEP
60110
ITEM: NUMBER OF ATOMS
2
ITEM: BOX BOUNDS pp pp pp
4.8591457272623959e+00 3.0146854272736590e+01
4.8591457272623959e+00 3.0146854272736590e+01
4.8591457272623959e+00 3.0146854272736590e+01
ITEM: ATOMS id type x y z fx fy fz
1556 4 21.3496 20.961 13.3286 -144.338 184.596 34.7522
1555 3 19.7396 21.1936 28.7631 11.1795 2.90428 -20.5617
ITEM: TIMESTEP
60120
ITEM: NUMBER OF ATOMS
2
ITEM: BOX BOUNDS pp pp pp
4.8593805892763591e+00 3.0146619410722629e+01
4.8593805892763591e+00 3.0146619410722629e+01
4.8593805892763591e+00 3.0146619410722629e+01
ITEM: ATOMS id type x y z fx fy fz
1556 4 21.3474 20.9736 13.3196 -57.9734 -113.207 19.9684
1555 3 19.7451 21.2066 28.7543 10.2927 1.13053 -22.0717
ITEM: TIMESTEP
60130
ITEM: NUMBER OF ATOMS
2
ITEM: BOX BOUNDS pp pp pp
4.8596188566243654e+00 3.0146381143374619e+01
4.8596188566243654e+00 3.0146381143374619e+01
4.8596188566243654e+00 3.0146381143374619e+01
ITEM: ATOMS id type x y z fx fy fz
1556 4 21.3394 20.9815 13.3112 19.738 74.3747 -125.997
1555 3 19.7514 21.2197 28.7439 9.45572 -0.571909 -20.5122
ITEM: TIMESTEP
60140
ITEM: NUMBER OF ATOMS
2
ITEM: BOX BOUNDS pp pp pp
4.8598574364153961e+00 3.0146142563583595e+01
4.8598574364153961e+00 3.0146142563583595e+01
4.8598574364153961e+00 3.0146142563583595e+01
ITEM: ATOMS id type x y z fx fy fz
1556 4 21.3347 20.9925 13.2956 106.638 -82.0256 156.608
1555 3 19.7584 21.2328 28.732 6.76797 -2.09321 -28.7145
ITEM: TIMESTEP
60150
ITEM: NUMBER OF ATOMS
2
ITEM: BOX BOUNDS pp pp pp
4.8600916254799795e+00 3.0145908374519003e+01
4.8600916254799795e+00 3.0145908374519003e+01
4.8600916254799795e+00 3.0145908374519003e+01
ITEM: ATOMS id type x y z fx fy fz
1556 4 21.3384 21.0001 13.2914 106.774 138.172 218.733
1555 3 19.7658 21.2457 28.7181 8.66567 -4.61516 -7.74869
ITEM: TIMESTEP
60160
ITEM: NUMBER OF ATOMS
2
ITEM: BOX BOUNDS pp pp pp
4.8603217526978444e+00 3.0145678247301142e+01
4.8603217526978444e+00 3.0145678247301142e+01
4.8603217526978444e+00 3.0145678247301142e+01
ITEM: ATOMS id type x y z fx fy fz
1556 4 21.3511 21.0152 13.3021 57.9361 -64.8389 -148.4
1555 3 19.774 21.2583 28.7039 15.7289 -8.13247 45.5481
ITEM: TIMESTEP
60170
ITEM: NUMBER OF ATOMS
2
ITEM: BOX BOUNDS pp pp pp
4.8605549495588782e+00 3.0145445050440120e+01
4.8605549495588782e+00 3.0145445050440120e+01
4.8605549495588782e+00 3.0145445050440120e+01
ITEM: ATOMS id type x y z fx fy fz
1556 4 21.3691 21.0262 13.3031 -18.0526 -145.314 -110.792
1555 3 19.7833 21.2703 28.6929 18.6015 -10.6691 74.3128
ITEM: TIMESTEP
60180
ITEM: NUMBER OF ATOMS
2
ITEM: BOX BOUNDS pp pp pp
4.8607971850635305e+00 3.0145202814935484e+01
4.8607971850635305e+00 3.0145202814935484e+01
4.8607971850635305e+00 3.0145202814935484e+01
ITEM: ATOMS id type x y z fx fy fz
1556 4 21.3817 21.031 13.2948 -255.102 282.338 44.7807
1555 3 19.7939 21.2815 28.6871 15.662 -11.6122 71.1767
ITEM: TIMESTEP
60190
ITEM: NUMBER OF ATOMS
2
ITEM: BOX BOUNDS pp pp pp
4.8610490952133656e+00 3.0144950904785652e+01
4.8610490952133656e+00 3.0144950904785652e+01
4.8610490952133656e+00 3.0144950904785652e+01
ITEM: ATOMS id type x y z fx fy fz
1556 4 21.3792 21.0515 13.2895 -43.2923 -199.387 -120.662
1555 3 19.8056 21.2919 28.6863 10.0667 -11.314 56.0039
ITEM: TIMESTEP
60200
ITEM: NUMBER OF ATOMS
2
ITEM: BOX BOUNDS pp pp pp
4.8613106980192491e+00 3.0144689301979774e+01
4.8613106980192491e+00 3.0144689301979774e+01
4.8613106980192491e+00 3.0144689301979774e+01
ITEM: ATOMS id type x y z fx fy fz
1556 4 21.3733 21.0617 13.2754 77.1755 -15.6582 -147.702
1555 3 19.818 21.3015 28.6895 -0.120239 -9.8922 13.7312
ITEM: TIMESTEP
60210
ITEM: NUMBER OF ATOMS
2
ITEM: BOX BOUNDS pp pp pp
4.8615761251463425e+00 3.0144423874852677e+01
4.8615761251463425e+00 3.0144423874852677e+01
4.8615761251463425e+00 3.0144423874852677e+01
ITEM: ATOMS id type x y z fx fy fz
1556 4 21.3725 21.069 13.2526 38.3585 47.9173 252.72
1555 3 19.8304 21.3103 28.6935 -12.6194 -8.07133 -45.8884
ITEM: TIMESTEP
60220
ITEM: NUMBER OF ATOMS
2
ITEM: BOX BOUNDS pp pp pp
4.8618367851961573e+00 3.0144163214802866e+01
4.8618367851961573e+00 3.0144163214802866e+01
4.8618367851961573e+00 3.0144163214802866e+01
ITEM: ATOMS id type x y z fx fy fz
1556 4 21.3761 21.0805 13.2463 97.3634 35.4923 142.627
1555 3 19.842 21.3186 28.6945 -17.8384 -7.79356 -65.3473
ITEM: TIMESTEP
60230
ITEM: NUMBER OF ATOMS
2
ITEM: BOX BOUNDS pp pp pp
4.8620892936673066e+00 3.0143910706331720e+01
4.8620892936673066e+00 3.0143910706331720e+01
4.8620892936673066e+00 3.0143910706331720e+01
ITEM: ATOMS id type x y z fx fy fz
1556 4 21.387 21.0933 13.2542 82.7267 -96.1105 82.9517
1555 3 19.8523 21.3263 28.6909 -15.7388 -9.05629 -44.8347
ITEM: TIMESTEP
60240
ITEM: NUMBER OF ATOMS
2
ITEM: BOX BOUNDS pp pp pp
4.8623378827479726e+00 3.0143662117251054e+01
4.8623378827479726e+00 3.0143662117251054e+01
4.8623378827479726e+00 3.0143662117251054e+01
ITEM: ATOMS id type x y z fx fy fz
1556 4 21.4038 21.1004 13.2665 15.2525 -4.39458 -181.386
1555 3 19.8614 21.3333 28.6842 -9.92291 -10.9428 -6.64029
ITEM: TIMESTEP
60250
ITEM: NUMBER OF ATOMS
2
ITEM: BOX BOUNDS pp pp pp
4.8625878130937643e+00 3.0143412186905255e+01
4.8625878130937643e+00 3.0143412186905255e+01
4.8625878130937643e+00 3.0143412186905255e+01
ITEM: ATOMS id type x y z fx fy fz
1556 4 21.4201 21.105 13.2696 -244.392 -2.79507 172.384
1555 3 19.8699 21.3395 28.6769 -5.94465 -12.2259 15.1262
ITEM: TIMESTEP
60260
ITEM: NUMBER OF ATOMS
2
ITEM: BOX BOUNDS pp pp pp
4.8628419558264113e+00 3.0143158044172601e+01
4.8628419558264113e+00 3.0143158044172601e+01
4.8628419558264113e+00 3.0143158044172601e+01
ITEM: ATOMS id type x y z fx fy fz
1556 4 21.4201 21.1117 13.2802 -33.7153 91.6965 -181.671
1555 3 19.8779 21.3449 28.6708 -0.535699 -13.073 43.3256
ITEM: TIMESTEP
60270
ITEM: NUMBER OF ATOMS
2
ITEM: BOX BOUNDS pp pp pp
4.8631039286907924e+00 3.0142896071308218e+01
4.8631039286907924e+00 3.0142896071308218e+01
4.8631039286907924e+00 3.0142896071308218e+01
ITEM: ATOMS id type x y z fx fy fz
1556 4 21.411 21.1218 13.2793 -108.005 -170.319 -73.5688
1555 3 19.8858 21.3493 28.6676 0.0417982 -12.139 39.8258
ITEM: TIMESTEP
60280
ITEM: NUMBER OF ATOMS
2
ITEM: BOX BOUNDS pp pp pp
4.8633731032953271e+00 3.0142626896703682e+01
4.8633731032953271e+00 3.0142626896703682e+01
4.8633731032953271e+00 3.0142626896703682e+01
ITEM: ATOMS id type x y z fx fy fz
1556 4 21.3979 21.122 13.2723 128.279 158.567 53.8523
1555 3 19.8938 21.3529 28.6671 -2.18785 -9.64018 17.0765
ITEM: TIMESTEP
60290
ITEM: NUMBER OF ATOMS
2
ITEM: BOX BOUNDS pp pp pp
4.8636474923403252e+00 3.0142352507658686e+01
4.8636474923403252e+00 3.0142352507658686e+01
4.8636474923403252e+00 3.0142352507658686e+01
ITEM: ATOMS id type x y z fx fy fz
1556 4 21.3959 21.1299 13.2705 121.164 -36.132 151.95
1555 3 19.9016 21.3557 28.668 -2.58162 -6.26885 4.61135
ITEM: TIMESTEP
60300
ITEM: NUMBER OF ATOMS
2
ITEM: BOX BOUNDS pp pp pp
4.8639276607289599e+00 3.0142072339270044e+01
4.8639276607289599e+00 3.0142072339270044e+01
4.8639276607289599e+00 3.0142072339270044e+01
ITEM: ATOMS id type x y z fx fy fz
1556 4 21.4042 21.1375 13.28 56.1779 -8.80056 37.9662
1555 3 19.9092 21.3581 28.6694 0.795413 -2.44262 15.9506
ITEM: TIMESTEP
60310
ITEM: NUMBER OF ATOMS
2
ITEM: BOX BOUNDS pp pp pp
4.8642194276289974e+00 3.0141780572370010e+01
4.8642194276289974e+00 3.0141780572370010e+01
4.8642194276289974e+00 3.0141780572370010e+01
ITEM: ATOMS id type x y z fx fy fz
1556 4 21.4162 21.1436 13.2913 -1.41892 -42.0379 -235.586
1555 3 19.9169 21.3603 28.6719 4.51311 2.28723 29.4343
ITEM: TIMESTEP
60320
ITEM: NUMBER OF ATOMS
2
ITEM: BOX BOUNDS pp pp pp
4.8645271647642403e+00 3.0141472835234758e+01
4.8645271647642403e+00 3.0141472835234758e+01
4.8645271647642403e+00 3.0141472835234758e+01
ITEM: ATOMS id type x y z fx fy fz
1556 4 21.4289 21.1462 13.2876 -123.742 -50.4432 87.1728
1555 3 19.9249 21.3627 28.6763 3.12101 8.40264 10.1753
ITEM: TIMESTEP
60330
ITEM: NUMBER OF ATOMS
2
ITEM: BOX BOUNDS pp pp pp
4.8648489784149724e+00 3.0141151021584040e+01
4.8648489784149724e+00 3.0141151021584040e+01
4.8648489784149724e+00 3.0141151021584040e+01
ITEM: ATOMS id type x y z fx fy fz
1556 4 21.4323 21.1463 13.2877 -94.5378 136.042 49.5002
1555 3 19.9331 21.3657 28.6815 2.07997 14.3157 -5.51491
ITEM: TIMESTEP
60340
ITEM: NUMBER OF ATOMS
2
ITEM: BOX BOUNDS pp pp pp
4.8651819141186561e+00 3.0140818085880358e+01
4.8651819141186561e+00 3.0140818085880358e+01
4.8651819141186561e+00 3.0140818085880358e+01
ITEM: ATOMS id type x y z fx fy fz
1556 4 21.426 21.154 13.2898 -65.3821 -126.075 -159.074
1555 3 19.9415 21.3697 28.6863 1.15751 19.1375 -19.3007
ITEM: TIMESTEP
60350
ITEM: NUMBER OF ATOMS
2
ITEM: BOX BOUNDS pp pp pp
4.8655211137566159e+00 3.0140478886242398e+01
4.8655211137566159e+00 3.0140478886242398e+01
4.8655211137566159e+00 3.0140478886242398e+01
ITEM: ATOMS id type x y z fx fy fz
1556 4 21.4153 21.1537 13.2809 74.287 -31.4404 22.434
1555 3 19.9499 21.3751 28.6896 -2.68573 22.4529 -51.3713
ITEM: TIMESTEP
60360
ITEM: NUMBER OF ATOMS
2
ITEM: BOX BOUNDS pp pp pp
4.8658592740764792e+00 3.0140140725922535e+01
4.8658592740764792e+00 3.0140140725922535e+01
4.8658592740764792e+00 3.0140140725922535e+01
ITEM: ATOMS id type x y z fx fy fz
1556 4 21.4077 21.1517 13.274 -13.2627 88.0206 257.044
1555 3 19.9582 21.3821 28.6892 -4.73146 23.0289 -69.9176
ITEM: TIMESTEP
60370
ITEM: NUMBER OF ATOMS
2
ITEM: BOX BOUNDS pp pp pp
4.8661893464641270e+00 3.0139810653534887e+01
4.8661893464641270e+00 3.0139810653534887e+01
4.8661893464641270e+00 3.0139810653534887e+01
ITEM: ATOMS id type x y z fx fy fz
1556 4 21.4038 21.1569 13.2868 173.921 10.4501 22.5141
1555 3 19.9661 21.3908 28.6841 0.153622 20.1517 -38.7606
ITEM: TIMESTEP
60380
ITEM: NUMBER OF ATOMS
2
ITEM: BOX BOUNDS pp pp pp
4.8665152310710962e+00 3.0139484768927908e+01
4.8665152310710962e+00 3.0139484768927908e+01
4.8665152310710962e+00 3.0139484768927908e+01
ITEM: ATOMS id type x y z fx fy fz
1556 4 21.41 21.1611 13.3033 5.11725 -105.497 -152.567
1555 3 19.9741 21.401 28.6762 6.81629 15.6155 8.61252
ITEM: TIMESTEP
60390
ITEM: NUMBER OF ATOMS
2
ITEM: BOX BOUNDS pp pp pp
4.8668447423926064e+00 3.0139155257606397e+01
4.8668447423926064e+00 3.0139155257606397e+01
4.8668447423926064e+00 3.0139155257606397e+01
ITEM: ATOMS id type x y z fx fy fz
1556 4 21.4174 21.1614 13.3094 -169.977 126.98 80.5592
1555 3 19.9826 21.4123 28.6688 9.87969 11.3212 35.1901
ITEM: TIMESTEP
60400
ITEM: NUMBER OF ATOMS
2
ITEM: BOX BOUNDS pp pp pp
4.8671846425364187e+00 3.0138815357462590e+01
4.8671846425364187e+00 3.0138815357462590e+01
4.8671846425364187e+00 3.0138815357462590e+01
ITEM: ATOMS id type x y z fx fy fz
1556 4 21.4129 21.1678 13.3191 -47.4998 -84.3349 -42.1926
1555 3 19.9918 21.4244 28.6639 12.059 7.44738 59.8617
ITEM: TIMESTEP
60410
ITEM: NUMBER OF ATOMS
2
ITEM: BOX BOUNDS pp pp pp
4.8675415380249181e+00 3.0138458461974089e+01
4.8675415380249181e+00 3.0138458461974089e+01
4.8675415380249181e+00 3.0138458461974089e+01
ITEM: ATOMS id type x y z fx fy fz
1556 4 21.4012 21.1703 13.3237 -55.2371 18.6961 -247.443
1555 3 20.0018 21.4371 28.6633 10.7397 4.62961 63.6273
ITEM: TIMESTEP
60420
ITEM: NUMBER OF ATOMS
2
ITEM: BOX BOUNDS pp pp pp
4.8679165027278088e+00 3.0138083497271214e+01
4.8679165027278088e+00 3.0138083497271214e+01
4.8679165027278088e+00 3.0138083497271214e+01
ITEM: ATOMS id type x y z fx fy fz
1556 4 21.3876 21.1738 13.3097 73.994 35.2763 -12.5073
1555 3 20.0126 21.4501 28.667 2.77664 3.56284 21.4488
ITEM: TIMESTEP
60430
ITEM: NUMBER OF ATOMS
2
ITEM: BOX BOUNDS pp pp pp
4.8683033208861453e+00 3.0137696679112878e+01
4.8683033208861453e+00 3.0137696679112878e+01
4.8683033208861453e+00 3.0137696679112878e+01
ITEM: ATOMS id type x y z fx fy fz
1556 4 21.3778 21.1789 13.2941 36.4187 -89.0634 194.972
1555 3 20.0236 21.4634 28.6722 -5.87645 2.99256 -26.418
ITEM: TIMESTEP
60440
ITEM: NUMBER OF ATOMS
2
ITEM: BOX BOUNDS pp pp pp
4.8686917897378645e+00 3.0137308210261153e+01
4.8686917897378645e+00 3.0137308210261153e+01
4.8686917897378645e+00 3.0137308210261153e+01
ITEM: ATOMS id type x y z fx fy fz
1556 4 21.3723 21.1803 13.2925 133.914 173.754 77.3158
1555 3 20.0342 21.4769 28.6757 -9.98587 1.69924 -42.0152
ITEM: TIMESTEP
60450
ITEM: NUMBER OF ATOMS
2
ITEM: BOX BOUNDS pp pp pp
4.8690783365581627e+00 3.0136921663440852e+01
4.8690783365581627e+00 3.0136921663440852e+01
4.8690783365581627e+00 3.0136921663440852e+01
ITEM: ATOMS id type x y z fx fy fz
1556 4 21.3769 21.191 13.2983 50.0304 -103.918 -38.4048
1555 3 20.0441 21.4906 28.6763 -10.899 -0.112339 -34.8226
ITEM: TIMESTEP
60460
ITEM: NUMBER OF ATOMS
2
ITEM: BOX BOUNDS pp pp pp
4.8694616659856091e+00 3.0136538334013409e+01
4.8694616659856091e+00 3.0136538334013409e+01
4.8694616659856091e+00 3.0136538334013409e+01
ITEM: ATOMS id type x y z fx fy fz
1556 4 21.3876 21.1966 13.3001 100.001 13.1566 -103.109
1555 3 20.0532 21.5042 28.6744 -11.7478 -1.7459 -28.5837
ITEM: TIMESTEP
60470
ITEM: NUMBER OF ATOMS
2
ITEM: BOX BOUNDS pp pp pp
4.8698413714862667e+00 3.0136158628512753e+01
4.8698413714862667e+00 3.0136158628512753e+01
4.8698413714862667e+00 3.0136158628512753e+01
ITEM: ATOMS id type x y z fx fy fz
1556 4 21.3996 21.203 13.2971 -323.183 43.1028 245.424
1555 3 20.0614 21.5177 28.6703 -12.9044 -3.10557 -26.8518
ITEM: TIMESTEP
60480
ITEM: NUMBER OF ATOMS
2
ITEM: BOX BOUNDS pp pp pp
4.8702147879107276e+00 3.0135785212088294e+01
4.8702147879107276e+00 3.0135785212088294e+01
4.8702147879107276e+00 3.0135785212088294e+01
ITEM: ATOMS id type x y z fx fy fz
1556 4 21.3924 21.2109 13.3078 -57.036 -80.5892 -307.478
1555 3 20.0688 21.531 28.6645 -10.2604 -5.16758 0.00771816
ITEM: TIMESTEP
60490
ITEM: NUMBER OF ATOMS
2
ITEM: BOX BOUNDS pp pp pp
4.8705843455474511e+00 3.0135415654451570e+01
4.8705843455474511e+00 3.0135415654451570e+01
4.8705843455474511e+00 3.0135415654451570e+01
ITEM: ATOMS id type x y z fx fy fz
1556 4 21.3771 21.2141 13.3005 26.8816 58.259 -41.9703
1555 3 20.0754 21.544 28.6584 -12.0696 -6.04737 -9.51917
ITEM: TIMESTEP
60500
ITEM: NUMBER OF ATOMS
2
ITEM: BOX BOUNDS pp pp pp
4.8709491007677830e+00 3.0135050899231235e+01
4.8709491007677830e+00 3.0135050899231235e+01
4.8709491007677830e+00 3.0135050899231235e+01
ITEM: ATOMS id type x y z fx fy fz
1556 4 21.3609 21.22 13.2888 18.2059 -2.15398 192.223
1555 3 20.0811 21.5565 28.6516 -14.2772 -6.59838 -26.277
ITEM: TIMESTEP
60510
ITEM: NUMBER OF ATOMS
2
ITEM: BOX BOUNDS pp pp pp
4.8713065695349087e+00 3.0134693430464118e+01
4.8713065695349087e+00 3.0134693430464118e+01
4.8713065695349087e+00 3.0134693430464118e+01
ITEM: ATOMS id type x y z fx fy fz
1556 4 21.3492 21.2262 13.2937 153.33 33.3088 108.052
1555 3 20.0857 21.5685 28.643 -11.0811 -8.22224 -5.55675
ITEM: TIMESTEP
60520
ITEM: NUMBER OF ATOMS
2
ITEM: BOX BOUNDS pp pp pp
4.8716626721329188e+00 3.0134337327866106e+01
4.8716626721329188e+00 3.0134337327866106e+01
4.8716626721329188e+00 3.0134337327866106e+01
ITEM: ATOMS id type x y z fx fy fz
1556 4 21.3494 21.2359 13.3054 64.5455 21.8099 -178.41
1555 3 20.0897 21.58 28.6343 -5.2369 -10.2766 32.1525
ITEM: TIMESTEP
60530
ITEM: NUMBER OF ATOMS
2
ITEM: BOX BOUNDS pp pp pp
4.8720248917425781e+00 3.0133975108256450e+01
4.8720248917425781e+00 3.0133975108256450e+01
4.8720248917425781e+00 3.0133975108256450e+01
ITEM: ATOMS id type x y z fx fy fz
1556 4 21.3562 21.2455 13.3055 39.2549 -144.235 -66.5958
1555 3 20.0932 21.5907 28.6276 -2.23198 -11.4877 44.1506
ITEM: TIMESTEP
60540
ITEM: NUMBER OF ATOMS
2
ITEM: BOX BOUNDS pp pp pp
4.8723976294729265e+00 3.0133602370526098e+01
4.8723976294729265e+00 3.0133602370526098e+01
4.8723976294729265e+00 3.0133602370526098e+01
ITEM: ATOMS id type x y z fx fy fz
1556 4 21.3654 21.247 13.2999 -144.848 114.709 45.3416
1555 3 20.0965 21.6006 28.6241 -1.06473 -12.3287 39.7342
ITEM: TIMESTEP
60550
ITEM: NUMBER OF ATOMS
2
ITEM: BOX BOUNDS pp pp pp
4.8727794544223570e+00 3.0133220545576670e+01
4.8727794544223570e+00 3.0133220545576670e+01
4.8727794544223570e+00 3.0133220545576670e+01
ITEM: ATOMS id type x y z fx fy fz
1556 4 21.366 21.2557 13.297 26.3625 6.98987 -81.4368
1555 3 20.0998 21.6096 28.6234 -0.282162 -13.0852 31.92
ITEM: TIMESTEP
60560
ITEM: NUMBER OF ATOMS
2
ITEM: BOX BOUNDS pp pp pp
4.8731686653096418e+00 3.0132831334689396e+01
4.8731686653096418e+00 3.0132831334689396e+01
4.8731686653096418e+00 3.0132831334689396e+01
ITEM: ATOMS id type x y z fx fy fz
1556 4 21.3638 21.2635 13.2865 -58.0488 -236.646 -157.858
1555 3 20.103 21.6176 28.6249 -2.13143 -13.077 3.81097
ITEM: TIMESTEP
60570
ITEM: NUMBER OF ATOMS
2
ITEM: BOX BOUNDS pp pp pp
4.8735572509021345e+00 3.0132442749096914e+01
4.8735572509021345e+00 3.0132442749096914e+01
4.8735572509021345e+00 3.0132442749096914e+01
ITEM: ATOMS id type x y z fx fy fz
1556 4 21.3591 21.2568 13.2644 37.5269 202.218 93.3595
1555 3 20.106 21.6247 28.6266 -6.81272 -11.8921 -46.3089
ITEM: TIMESTEP
60580
ITEM: NUMBER OF ATOMS
2
ITEM: BOX BOUNDS pp pp pp
4.8739347011014562e+00 3.0132065298897594e+01
4.8739347011014562e+00 3.0132065298897594e+01
4.8739347011014562e+00 3.0132065298897594e+01
ITEM: ATOMS id type x y z fx fy fz
1556 4 21.3563 21.26 13.2494 68.5655 -21.001 245.068
1555 3 20.1086 21.6309 28.625 -8.65536 -10.6494 -74.6733
ITEM: TIMESTEP
60590
ITEM: NUMBER OF ATOMS
2
ITEM: BOX BOUNDS pp pp pp
4.8742935116288635e+00 3.0131706488370188e+01
4.8742935116288635e+00 3.0131706488370188e+01
4.8742935116288635e+00 3.0131706488370188e+01
ITEM: ATOMS id type x y z fx fy fz
1556 4 21.3598 21.2658 13.2515 60.7386 15.7195 -94.3994
1555 3 20.1106 21.6364 28.6183 -4.55569 -10.3605 -56.3997
ITEM: TIMESTEP
60600
ITEM: NUMBER OF ATOMS
2
ITEM: BOX BOUNDS pp pp pp
4.8746357171433683e+00 3.0131364282855685e+01
4.8746357171433683e+00 3.0131364282855685e+01
4.8746357171433683e+00 3.0131364282855685e+01
ITEM: ATOMS id type x y z fx fy fz
1556 4 21.3697 21.269 13.2505 1.67548 -195.899 73.6382
1555 3 20.1123 21.6412 28.6075 0.135978 -9.91392 -32.8589
ITEM: TIMESTEP
60610
ITEM: NUMBER OF ATOMS
2
ITEM: BOX BOUNDS pp pp pp
4.8749673824492437e+00 3.0131032617549806e+01
4.8749673824492437e+00 3.0131032617549806e+01
4.8749673824492437e+00 3.0131032617549806e+01
ITEM: ATOMS id type x y z fx fy fz
1556 4 21.3764 21.2625 13.2532 -140.046 251.691 -5.33043
1555 3 20.114 21.6452 28.5944 6.19878 -10.1033 3.10098
ITEM: TIMESTEP
60620
ITEM: NUMBER OF ATOMS
2
ITEM: BOX BOUNDS pp pp pp
4.8752957943947717e+00 3.0130704205604285e+01
4.8752957943947717e+00 3.0130704205604285e+01
4.8752957943947717e+00 3.0130704205604285e+01
ITEM: ATOMS id type x y z fx fy fz
1556 4 21.3745 21.2702 13.2557 26.0035 -111.998 -126.699
1555 3 20.1161 21.6484 28.5816 11.1456 -10.5016 34.5577
ITEM: TIMESTEP
60630
ITEM: NUMBER OF ATOMS
2
ITEM: BOX BOUNDS pp pp pp
4.8756290670135858e+00 3.0130370932985471e+01
4.8756290670135858e+00 3.0130370932985471e+01
4.8756290670135858e+00 3.0130370932985471e+01
ITEM: ATOMS id type x y z fx fy fz
1556 4 21.3705 21.272 13.2488 -94.4606 -172.757 2.37757
1555 3 20.119 21.651 28.571 12.1561 -10.3526 41.9206
ITEM: TIMESTEP
60640
ITEM: NUMBER OF ATOMS
2
ITEM: BOX BOUNDS pp pp pp
4.8759693299365345e+00 3.0130030670062521e+01
4.8759693299365345e+00 3.0130030670062521e+01
4.8759693299365345e+00 3.0130030670062521e+01
ITEM: ATOMS id type x y z fx fy fz
1556 4 21.3611 21.2609 13.2402 82.8031 97.1862 -82.0435
1555 3 20.1228 21.6527 28.5635 10.751 -10.016 38.3331
ITEM: TIMESTEP
60650
ITEM: NUMBER OF ATOMS
2
ITEM: BOX BOUNDS pp pp pp
4.8763169292573441e+00 3.0129683070741713e+01
4.8763169292573441e+00 3.0129683070741713e+01
4.8763169292573441e+00 3.0129683070741713e+01
ITEM: ATOMS id type x y z fx fy fz
1556 4 21.358 21.2557 13.2269 36.8867 100.926 70.6702
1555 3 20.1274 21.6538 28.5586 6.6229 -9.08577 20.1789
ITEM: TIMESTEP
60660
ITEM: NUMBER OF ATOMS
2
ITEM: BOX BOUNDS pp pp pp
4.8766682738849720e+00 3.0129331726114088e+01
4.8766682738849720e+00 3.0129331726114088e+01
4.8766682738849720e+00 3.0129331726114088e+01
ITEM: ATOMS id type x y z fx fy fz
1556 4 21.359 21.2583 13.2207 52.8479 -95.5803 195.568
1555 3 20.1324 21.6541 28.5552 3.20459 -8.49275 12.7085
ITEM: TIMESTEP
60670
ITEM: NUMBER OF ATOMS
2
ITEM: BOX BOUNDS pp pp pp
4.8770226939272199e+00 3.0128977306071835e+01
4.8770226939272199e+00 3.0128977306071835e+01
4.8770226939272199e+00 3.0128977306071835e+01
ITEM: ATOMS id type x y z fx fy fz
1556 4 21.3653 21.2544 13.2258 144.115 -41.5924 -274.935
1555 3 20.1377 21.6539 28.5529 2.05811 -8.65272 26.2732
ITEM: TIMESTEP
60680
ITEM: NUMBER OF ATOMS
2
ITEM: BOX BOUNDS pp pp pp
4.8773809891411144e+00 3.0128619010857932e+01
4.8773809891411144e+00 3.0128619010857932e+01
4.8773809891411144e+00 3.0128619010857932e+01
ITEM: ATOMS id type x y z fx fy fz
1556 4 21.3836 21.2474 13.2154 -71.3494 44.2321 165.91
1555 3 20.1431 21.653 28.5523 -3.07746 -7.45443 8.79213
ITEM: TIMESTEP
60690
ITEM: NUMBER OF ATOMS
2
ITEM: BOX BOUNDS pp pp pp
4.8777415072855916e+00 3.0128258492713456e+01
4.8777415072855916e+00 3.0128258492713456e+01
4.8777415072855916e+00 3.0128258492713456e+01
ITEM: ATOMS id type x y z fx fy fz
1556 4 21.3954 21.2434 13.2138 -144.616 28.0362 134.905
1555 3 20.1484 21.6516 28.5525 -6.29164 -6.72728 5.23452
ITEM: TIMESTEP
60700
ITEM: NUMBER OF ATOMS
2
ITEM: BOX BOUNDS pp pp pp
4.8781039526662191e+00 3.0127896047332825e+01
4.8781039526662191e+00 3.0127896047332825e+01
4.8781039526662191e+00 3.0127896047332825e+01
ITEM: ATOMS id type x y z fx fy fz
1556 4 21.3951 21.2413 13.2179 -18.6114 -28.9629 -363.969
1555 3 20.1532 21.6497 28.5531 -8.20931 -6.24058 8.56965
ITEM: TIMESTEP
60710
ITEM: NUMBER OF ATOMS
2
ITEM: BOX BOUNDS pp pp pp
4.8784690399626331e+00 3.0127530960036417e+01
4.8784690399626331e+00 3.0127530960036417e+01
4.8784690399626331e+00 3.0127530960036417e+01
ITEM: ATOMS id type x y z fx fy fz
1556 4 21.3939 21.2363 13.1992 -4.05096 -76.769 195.032
1555 3 20.1573 21.6473 28.554 -15.2591 -3.86624 -33.4027
ITEM: TIMESTEP
60720
ITEM: NUMBER OF ATOMS
2
ITEM: BOX BOUNDS pp pp pp
4.8788339220954633e+00 3.0127166077903585e+01
4.8788339220954633e+00 3.0127166077903585e+01
4.8788339220954633e+00 3.0127166077903585e+01
ITEM: ATOMS id type x y z fx fy fz
1556 4 21.3885 21.2273 13.1903 -54.686 173.513 211.673
1555 3 20.1604 21.6447 28.5526 -18.5726 -2.47213 -52.163
ITEM: TIMESTEP
60730
ITEM: NUMBER OF ATOMS
2
ITEM: BOX BOUNDS pp pp pp
4.8791975970457759e+00 3.0126802402953281e+01
4.8791975970457759e+00 3.0126802402953281e+01
4.8791975970457759e+00 3.0126802402953281e+01
ITEM: ATOMS id type x y z fx fy fz
1556 4 21.3811 21.227 13.1975 159.612 -180.064 -75.1536
1555 3 20.1621 21.6418 28.5477 -16.3264 -2.77726 -32.9239
ITEM: TIMESTEP
60740
ITEM: NUMBER OF ATOMS
2
ITEM: BOX BOUNDS pp pp pp
4.8795656346202936e+00 3.0126434365378753e+01
4.8795656346202936e+00 3.0126434365378753e+01
4.8795656346202936e+00 3.0126434365378753e+01
ITEM: ATOMS id type x y z fx fy fz
1556 4 21.3859 21.2174 13.2025 57.2771 102.371 32.6069
1555 3 20.1627 21.6388 28.5404 -12.8864 -3.36463 -9.14771
ITEM: TIMESTEP
60750
ITEM: NUMBER OF ATOMS
2
ITEM: BOX BOUNDS pp pp pp
4.8799440247763179e+00 3.0126055975222734e+01
4.8799440247763179e+00 3.0126055975222734e+01
4.8799440247763179e+00 3.0126055975222734e+01
ITEM: ATOMS id type x y z fx fy fz
1556 4 21.3952 21.2132 13.2092 -15.48 31.1156 75.6864
1555 3 20.1623 21.6355 28.5324 -8.21756 -4.22545 19.7626
ITEM: TIMESTEP
60760
ITEM: NUMBER OF ATOMS
2
ITEM: BOX BOUNDS pp pp pp
4.8803395724938206e+00 3.0125660427505238e+01
4.8803395724938206e+00 3.0125660427505238e+01
4.8803395724938206e+00 3.0125660427505238e+01
ITEM: ATOMS id type x y z fx fy fz
1556 4 21.4025 21.2104 13.2206 -74.0409 -150.997 -62.3281
1555 3 20.1614 21.6319 28.5259 -2.4347 -5.30844 54.2844
ITEM: TIMESTEP
60770
ITEM: NUMBER OF ATOMS
2
ITEM: BOX BOUNDS pp pp pp
4.8807573461717872e+00 3.0125242653827264e+01
4.8807573461717872e+00 3.0125242653827264e+01
4.8807573461717872e+00 3.0125242653827264e+01
ITEM: ATOMS id type x y z fx fy fz
1556 4 21.4056 21.1993 13.2282 -60.324 180.477 -138.775
1555 3 20.1602 21.6279 28.5233 1.58135 -5.73453 73.3141
ITEM: TIMESTEP
60780
ITEM: NUMBER OF ATOMS
2
ITEM: BOX BOUNDS pp pp pp
4.8811997585811717e+00 3.0124800241417880e+01
4.8811997585811717e+00 3.0124800241417880e+01
4.8811997585811717e+00 3.0124800241417880e+01
ITEM: ATOMS id type x y z fx fy fz
1556 4 21.4051 21.1975 13.2257 10.8237 -102.649 -89.1657
1555 3 20.1592 21.6234 28.5257 1.5826 -4.56789 60.0148
ITEM: TIMESTEP
60790
ITEM: NUMBER OF ATOMS
2
ITEM: BOX BOUNDS pp pp pp
4.8816622039135851e+00 3.0124337796085463e+01
4.8816622039135851e+00 3.0124337796085463e+01
4.8816622039135851e+00 3.0124337796085463e+01
ITEM: ATOMS id type x y z fx fy fz
1556 4 21.4037 21.1919 13.2155 10.0421 72.8812 52.937
1555 3 20.1582 21.6187 28.5323 -1.27973 -2.3101 23.4294
ITEM: TIMESTEP
60800
ITEM: NUMBER OF ATOMS
2
ITEM: BOX BOUNDS pp pp pp
4.8821355566242293e+00 3.0123864443374824e+01
4.8821355566242293e+00 3.0123864443374824e+01
4.8821355566242293e+00 3.0123864443374824e+01
ITEM: ATOMS id type x y z fx fy fz
1556 4 21.4024 21.1874 13.2088 69.7916 -48.9164 145.526
1555 3 20.1571 21.6137 28.5407 -3.6501 -0.0662045 -9.95106
ITEM: TIMESTEP
60810
ITEM: NUMBER OF ATOMS
2
ITEM: BOX BOUNDS pp pp pp
4.8826130902264051e+00 3.0123386909772641e+01
4.8826130902264051e+00 3.0123386909772641e+01
4.8826130902264051e+00 3.0123386909772641e+01
ITEM: ATOMS id type x y z fx fy fz