ITEM: TIMESTEP
60000
ITEM: NUMBER OF ATOMS
2
ITEM: BOX BOUNDS pp pp pp
4.8646648463372113e+00 3.0141335153662844e+01
4.8646648463372113e+00 3.0141335153662844e+01
4.8646648463372113e+00 3.0141335153662844e+01
ITEM: ATOMS id type x y z fx fy fz
1555 3 26.4414 20.1292 28.5469 -1.86534 -7.91738 12.772
1556 4 19.9349 27.7075 29.0405 21.1324 15.6709 36.172
ITEM: TIMESTEP
60010
ITEM: NUMBER OF ATOMS
2
ITEM: BOX BOUNDS pp pp pp
4.8647182276791519e+00 3.0141281772320902e+01
4.8647182276791519e+00 3.0141281772320902e+01
4.8647182276791519e+00 3.0141281772320902e+01
ITEM: ATOMS id type x y z fx fy fz
1555 3 26.4396 20.1333 28.5546 -2.5104 -7.94994 11.0126
1556 4 19.934 27.7145 29.0297 -13.4526 -9.57284 -7.47393
ITEM: TIMESTEP
60020
ITEM: NUMBER OF ATOMS
2
ITEM: BOX BOUNDS pp pp pp
4.8647607304633222e+00 3.0141239269536733e+01
4.8647607304633222e+00 3.0141239269536733e+01
4.8647607304633222e+00 3.0141239269536733e+01
ITEM: ATOMS id type x y z fx fy fz
1555 3 26.4377 20.1369 28.5632 -3.10227 -7.879 8.84323
1556 4 19.9324 27.7207 29.0182 -10.1673 -27.3294 -54.2884
ITEM: TIMESTEP
60030
ITEM: NUMBER OF ATOMS
2
ITEM: BOX BOUNDS pp pp pp
4.8647934278872231e+00 3.0141206572112843e+01
4.8647934278872231e+00 3.0141206572112843e+01
4.8647934278872231e+00 3.0141206572112843e+01
ITEM: ATOMS id type x y z fx fy fz
1555 3 26.4356 20.1398 28.5723 -1.95315 -9.67097 6.23114
1556 4 19.9299 27.7244 29.003 0.417168 -53.4205 5.7984
ITEM: TIMESTEP
60040
ITEM: NUMBER OF ATOMS
2
ITEM: BOX BOUNDS pp pp pp
4.8648173188920207e+00 3.0141182681108042e+01
4.8648173188920207e+00 3.0141182681108042e+01
4.8648173188920207e+00 3.0141182681108042e+01
ITEM: ATOMS id type x y z fx fy fz
1555 3 26.4333 20.1421 28.5819 2.99434 -15.7181 3.18587
1556 4 19.9274 27.7239 28.9875 5.60703 -14.5125 -6.06914
ITEM: TIMESTEP
60050
ITEM: NUMBER OF ATOMS
2
ITEM: BOX BOUNDS pp pp pp
4.8648324976715021e+00 3.0141167502328564e+01
4.8648324976715021e+00 3.0141167502328564e+01
4.8648324976715021e+00 3.0141167502328564e+01
ITEM: ATOMS id type x y z fx fy fz
1555 3 26.4313 20.1432 28.5918 7.54042 -21.0805 0.16786
1556 4 19.9249 27.7224 28.9717 -42.6626 44.0781 -3.47685
ITEM: TIMESTEP
60060
ITEM: NUMBER OF ATOMS
2
ITEM: BOX BOUNDS pp pp pp
4.8648388289252669e+00 3.0141161171074806e+01
4.8648388289252669e+00 3.0141161171074806e+01
4.8648388289252669e+00 3.0141161171074806e+01
ITEM: ATOMS id type x y z fx fy fz
1555 3 26.4298 20.1428 28.6017 5.08027 -18.0306 -2.28406
1556 4 19.9201 27.7241 28.9559 61.1561 21.9368 38.3362
ITEM: TIMESTEP
60070
ITEM: NUMBER OF ATOMS
2
ITEM: BOX BOUNDS pp pp pp
4.8648372012203467e+00 3.0141162798779725e+01
4.8648372012203467e+00 3.0141162798779725e+01
4.8648372012203467e+00 3.0141162798779725e+01
ITEM: ATOMS id type x y z fx fy fz
1555 3 26.4286 20.1411 28.6115 1.35355 -13.212 -4.4113
1556 4 19.9188 27.7279 28.9432 -20.8352 29.4853 35.1999
ITEM: TIMESTEP
60080
ITEM: NUMBER OF ATOMS
2
ITEM: BOX BOUNDS pp pp pp
4.8648286790155666e+00 3.0141171320984501e+01
4.8648286790155666e+00 3.0141171320984501e+01
4.8648286790155666e+00 3.0141171320984501e+01
ITEM: ATOMS id type x y z fx fy fz
1555 3 26.4276 20.1385 28.6209 -6.56143 -3.14665 -5.98257
1556 4 19.917 27.7342 28.933 9.74905 7.24571 -17.1422
ITEM: TIMESTEP
60090
ITEM: NUMBER OF ATOMS
2
ITEM: BOX BOUNDS pp pp pp
4.8648149984763336e+00 3.0141185001523723e+01
4.8648149984763336e+00 3.0141185001523723e+01
4.8648149984763336e+00 3.0141185001523723e+01
ITEM: ATOMS id type x y z fx fy fz
1555 3 26.426 20.1356 28.6299 -14.1444 6.95142 -7.20777
1556 4 19.9156 27.7407 28.9224 25.5238 -63.999 26.3783
ITEM: TIMESTEP
60100
ITEM: NUMBER OF ATOMS
2
ITEM: BOX BOUNDS pp pp pp
4.8647977678619849e+00 3.0141202232138077e+01
4.8647977678619849e+00 3.0141202232138077e+01
4.8647977678619849e+00 3.0141202232138077e+01
ITEM: ATOMS id type x y z fx fy fz
1555 3 26.4235 20.1332 28.6384 -13.7287 8.10519 -8.38544
1556 4 19.9165 27.7423 28.9129 16.9292 -50.5102 -35.594
ITEM: TIMESTEP
60110
ITEM: NUMBER OF ATOMS
2
ITEM: BOX BOUNDS pp pp pp
4.8647770357591327e+00 3.0141222964240924e+01
4.8647770357591327e+00 3.0141222964240924e+01
4.8647770357591327e+00 3.0141222964240924e+01
ITEM: ATOMS id type x y z fx fy fz
1555 3 26.42 20.1314 28.6463 -6.81222 2.01805 -9.35027
1556 4 19.9183 27.7395 28.9015 -34.0396 -26.0558 11.1365
ITEM: TIMESTEP
60120
ITEM: NUMBER OF ATOMS
2
ITEM: BOX BOUNDS pp pp pp
4.8647519058594071e+00 3.0141248094140643e+01
4.8647519058594071e+00 3.0141248094140643e+01
4.8647519058594071e+00 3.0141248094140643e+01
ITEM: ATOMS id type x y z fx fy fz
1555 3 26.4161 20.1297 28.6535 1.62468 -5.56701 -9.7919
1556 4 19.9186 27.7343 28.8904 60.6304 -4.05613 14.8797
ITEM: TIMESTEP
60130
ITEM: NUMBER OF ATOMS
2
ITEM: BOX BOUNDS pp pp pp
4.8647215136786599e+00 3.0141278486321390e+01
4.8647215136786599e+00 3.0141278486321390e+01
4.8647215136786599e+00 3.0141278486321390e+01
ITEM: ATOMS id type x y z fx fy fz
1555 3 26.4122 20.1275 28.66 12.3652 -15.6839 -9.7075
1556 4 19.9225 27.7288 28.8809 -14.0828 39.0887 32.4303
ITEM: TIMESTEP
60140
ITEM: NUMBER OF ATOMS
2
ITEM: BOX BOUNDS pp pp pp
4.8646849981144822e+00 3.0141315001885566e+01
4.8646849981144822e+00 3.0141315001885566e+01
4.8646849981144822e+00 3.0141315001885566e+01
ITEM: ATOMS id type x y z fx fy fz
1555 3 26.4093 20.1243 28.6659 17.1504 -18.8034 -8.84397
1556 4 19.926 27.7266 28.8738 -20.8283 41.0148 17.2447
ITEM: TIMESTEP
60150
ITEM: NUMBER OF ATOMS
2
ITEM: BOX BOUNDS pp pp pp
4.8646429979095807e+00 3.0141357002090473e+01
4.8646429979095807e+00 3.0141357002090473e+01
4.8646429979095807e+00 3.0141357002090473e+01
ITEM: ATOMS id type x y z fx fy fz
1555 3 26.4075 20.1198 28.6711 14.836 -13.7004 -7.32252
1556 4 19.9281 27.7274 28.8687 31.7461 -14.1337 31.2112
ITEM: TIMESTEP
60160
ITEM: NUMBER OF ATOMS
2
ITEM: BOX BOUNDS pp pp pp
4.8645975076542207e+00 3.0141402492345833e+01
4.8645975076542207e+00 3.0141402492345833e+01
4.8645975076542207e+00 3.0141402492345833e+01
ITEM: ATOMS id type x y z fx fy fz
1555 3 26.4068 20.1142 28.6757 12.2954 -8.56136 -5.55419
1556 4 19.932 27.7276 28.8657 -28.8791 -9.94458 -18.2912
ITEM: TIMESTEP
60170
ITEM: NUMBER OF ATOMS
2
ITEM: BOX BOUNDS pp pp pp
4.8645501209770536e+00 3.0141449879023007e+01
4.8645501209770536e+00 3.0141449879023007e+01
4.8645501209770536e+00 3.0141449879023007e+01
ITEM: ATOMS id type x y z fx fy fz
1555 3 26.4071 20.108 28.68 7.75965 -1.38717 -3.65565
1556 4 19.934 27.7266 28.8616 -29.1084 -34.2351 -16.7932
ITEM: TIMESTEP
60180
ITEM: NUMBER OF ATOMS
2
ITEM: BOX BOUNDS pp pp pp
4.8645021198731531e+00 3.0141497880126906e+01
4.8645021198731531e+00 3.0141497880126906e+01
4.8645021198731531e+00 3.0141497880126906e+01
ITEM: ATOMS id type x y z fx fy fz
1555 3 26.4078 20.1018 28.684 3.43608 5.18118 -1.83503
1556 4 19.9334 27.7227 28.8562 -0.651899 -49.9052 13.238
ITEM: TIMESTEP
60190
ITEM: NUMBER OF ATOMS
2
ITEM: BOX BOUNDS pp pp pp
4.8644541101313887e+00 3.0141545889868663e+01
4.8644541101313887e+00 3.0141545889868663e+01
4.8644541101313887e+00 3.0141545889868663e+01
ITEM: ATOMS id type x y z fx fy fz
1555 3 26.4089 20.0958 28.6879 3.0583 6.72642 -0.293566
1556 4 19.933 27.715 28.8512 24.4494 9.29475 -34.4037
ITEM: TIMESTEP
60200
ITEM: NUMBER OF ATOMS
2
ITEM: BOX BOUNDS pp pp pp
4.8644053864350258e+00 3.0141594613565026e+01
4.8644053864350258e+00 3.0141594613565026e+01
4.8644053864350258e+00 3.0141594613565026e+01
ITEM: ATOMS id type x y z fx fy fz
1555 3 26.4102 20.0904 28.6917 3.45824 7.01056 0.974245
1556 4 19.9338 27.7079 28.8445 -37.3465 41.6163 45.9555
ITEM: TIMESTEP
60210
ITEM: NUMBER OF ATOMS
2
ITEM: BOX BOUNDS pp pp pp
4.8643550664580015e+00 3.0141644933542047e+01
4.8643550664580015e+00 3.0141644933542047e+01
4.8643550664580015e+00 3.0141644933542047e+01
ITEM: ATOMS id type x y z fx fy fz
1555 3 26.4117 20.0855 28.6956 -0.238636 11.8162 2.02024
1556 4 19.9329 27.7041 28.8406 63.5732 27.5982 16.6558
ITEM: TIMESTEP
60220
ITEM: NUMBER OF ATOMS
2
ITEM: BOX BOUNDS pp pp pp
4.8643034430410452e+00 3.0141696556959001e+01
4.8643034430410452e+00 3.0141696556959001e+01
4.8643034430410452e+00 3.0141696556959001e+01
ITEM: ATOMS id type x y z fx fy fz
1555 3 26.4132 20.0814 28.6997 -2.17745 14.3172 2.645
1556 4 19.936 27.7028 28.8387 1.83426 29.3239 10.2448
ITEM: TIMESTEP
60230
ITEM: NUMBER OF ATOMS
2
ITEM: BOX BOUNDS pp pp pp
4.8642510713925162e+00 3.0141748928607527e+01
4.8642510713925162e+00 3.0141748928607527e+01
4.8642510713925162e+00 3.0141748928607527e+01
ITEM: ATOMS id type x y z fx fy fz
1555 3 26.4145 20.0784 28.704 -4.39518 16.9739 2.86402
1556 4 19.9398 27.7039 28.8373 -14.4221 -0.60826 -14.9891
ITEM: TIMESTEP
60240
ITEM: NUMBER OF ATOMS
2
ITEM: BOX BOUNDS pp pp pp
4.8641988201663686e+00 3.0141801179833674e+01
4.8641988201663686e+00 3.0141801179833674e+01
4.8641988201663686e+00 3.0141801179833674e+01
ITEM: ATOMS id type x y z fx fy fz
1555 3 26.4156 20.0766 28.7084 -5.44495 18.1377 2.63004
1556 4 19.9425 27.7046 28.8352 2.44869 -57.3752 16.0129
ITEM: TIMESTEP
60250
ITEM: NUMBER OF ATOMS
2
ITEM: BOX BOUNDS pp pp pp
4.8641472252575699e+00 3.0141852774742475e+01
4.8641472252575699e+00 3.0141852774742475e+01
4.8641472252575699e+00 3.0141852774742475e+01
ITEM: ATOMS id type x y z fx fy fz
1555 3 26.4162 20.0761 28.7131 -0.377135 11.9838 1.85737
1556 4 19.9454 27.7011 28.8336 5.7324 -21.3194 -46.7097
ITEM: TIMESTEP
60260
ITEM: NUMBER OF ATOMS
2
ITEM: BOX BOUNDS pp pp pp
4.8640952700986038e+00 3.0141904729901441e+01
4.8640952700986038e+00 3.0141904729901441e+01
4.8640952700986038e+00 3.0141904729901441e+01
ITEM: ATOMS id type x y z fx fy fz
1555 3 26.4169 20.0764 28.7179 7.63247 2.24011 0.620962
1556 4 19.9483 27.6956 28.8289 -42.4006 3.47398 7.80972
ITEM: TIMESTEP
60270
ITEM: NUMBER OF ATOMS
2
ITEM: BOX BOUNDS pp pp pp
4.8640410475469800e+00 3.0141958952453074e+01
4.8640410475469800e+00 3.0141958952453074e+01
4.8640410475469800e+00 3.0141958952453074e+01
ITEM: ATOMS id type x y z fx fy fz
1555 3 26.4181 20.0769 28.7227 12.774 -4.29663 -0.950946
1556 4 19.9482 27.6901 28.8247 -0.401766 6.98592 32.8915
ITEM: TIMESTEP
60280
ITEM: NUMBER OF ATOMS
2
ITEM: BOX BOUNDS pp pp pp
4.8639829673750246e+00 3.0142017032625027e+01
4.8639829673750246e+00 3.0142017032625027e+01
4.8639829673750246e+00 3.0142017032625027e+01
ITEM: ATOMS id type x y z fx fy fz
1555 3 26.4202 20.0771 28.7275 15.5673 -8.3253 -2.84213
1556 4 19.9481 27.6857 28.8227 30.7546 48.1842 -6.86073
ITEM: TIMESTEP
60290
ITEM: NUMBER OF ATOMS
2
ITEM: BOX BOUNDS pp pp pp
4.8639198189736703e+00 3.0142080181026387e+01
4.8639198189736703e+00 3.0142080181026387e+01
4.8639198189736703e+00 3.0142080181026387e+01
ITEM: ATOMS id type x y z fx fy fz
1555 3 26.4235 20.0768 28.7321 13.9436 -7.49665 -4.96345
1556 4 19.9497 27.6853 28.821 -40.6813 59.3661 33.2819
ITEM: TIMESTEP
60300
ITEM: NUMBER OF ATOMS
2
ITEM: BOX BOUNDS pp pp pp
4.8638515699285279e+00 3.0142148430071533e+01
4.8638515699285279e+00 3.0142148430071533e+01
4.8638515699285279e+00 3.0142148430071533e+01
ITEM: ATOMS id type x y z fx fy fz
1555 3 26.4277 20.0759 28.7363 4.45477 2.23057 -7.16652
1556 4 19.949 27.6894 28.8215 21.808 -12.7954 15.8227
ITEM: TIMESTEP
60310
ITEM: NUMBER OF ATOMS
2
ITEM: BOX BOUNDS pp pp pp
4.8637800830186819e+00 3.0142219916981389e+01
4.8637800830186819e+00 3.0142219916981389e+01
4.8637800830186819e+00 3.0142219916981389e+01
ITEM: ATOMS id type x y z fx fy fz
1555 3 26.4322 20.0752 28.74 -4.14465 10.618 -9.4128
1556 4 19.9493 27.693 28.8236 -4.8416 -22.5857 -9.88538
ITEM: TIMESTEP
60320
ITEM: NUMBER OF ATOMS
2
ITEM: BOX BOUNDS pp pp pp
4.8637073549049372e+00 3.0142292645095132e+01
4.8637073549049372e+00 3.0142292645095132e+01
4.8637073549049372e+00 3.0142292645095132e+01
ITEM: ATOMS id type x y z fx fy fz
1555 3 26.4365 20.0753 28.743 -9.85312 15.3949 -11.5495
1556 4 19.9495 27.6945 28.8246 -17.0913 -32.248 -30.4147
ITEM: TIMESTEP
60330
ITEM: NUMBER OF ATOMS
2
ITEM: BOX BOUNDS pp pp pp
4.8636349144757940e+00 3.0142365085524283e+01
4.8636349144757940e+00 3.0142365085524283e+01
4.8636349144757940e+00 3.0142365085524283e+01
ITEM: ATOMS id type x y z fx fy fz
1555 3 26.44 20.0764 28.7452 -12.1871 16.0935 -13.4254
1556 4 19.948 27.693 28.8239 -10.7917 -54.2653 40.3235
ITEM: TIMESTEP
60340
ITEM: NUMBER OF ATOMS
2
ITEM: BOX BOUNDS pp pp pp
4.8635636064440106e+00 3.0142436393556061e+01
4.8635636064440106e+00 3.0142436393556061e+01
4.8635636064440106e+00 3.0142436393556061e+01
ITEM: ATOMS id type x y z fx fy fz
1555 3 26.4427 20.0787 28.7464 -8.69427 9.92121 -14.936
1556 4 19.9464 27.6874 28.8255 50.3525 -2.9172 -12.6336
ITEM: TIMESTEP
60350
ITEM: NUMBER OF ATOMS
2
ITEM: BOX BOUNDS pp pp pp
4.8634926860605727e+00 3.0142507313939504e+01
4.8634926860605727e+00 3.0142507313939504e+01
4.8634926860605727e+00 3.0142507313939504e+01
ITEM: ATOMS id type x y z fx fy fz
1555 3 26.4448 20.0817 28.7465 -0.984518 -1.1556 -16.0043
1556 4 19.9479 27.6815 28.8271 -18.7456 41.6531 34.7981
ITEM: TIMESTEP
60360
ITEM: NUMBER OF ATOMS
2
ITEM: BOX BOUNDS pp pp pp
4.8634202411788827e+00 3.0142579758821192e+01
4.8634202411788827e+00 3.0142579758821192e+01
4.8634202411788827e+00 3.0142579758821192e+01
ITEM: ATOMS id type x y z fx fy fz
1555 3 26.4468 20.0846 28.7454 3.55743 -8.45075 -16.4984
1556 4 19.9488 27.6785 28.8313 26.3482 4.51759 50.0896
ITEM: TIMESTEP
60370
ITEM: NUMBER OF ATOMS
2
ITEM: BOX BOUNDS pp pp pp
4.8633447443348370e+00 3.0142655255665240e+01
4.8633447443348370e+00 3.0142655255665240e+01
4.8633447443348370e+00 3.0142655255665240e+01
ITEM: ATOMS id type x y z fx fy fz
1555 3 26.4491 20.0869 28.7432 7.81373 -15.2687 -16.4294
1556 4 19.9515 27.6764 28.8397 9.9073 16.9799 25.9691
ITEM: TIMESTEP
60380
ITEM: NUMBER OF ATOMS
2
ITEM: BOX BOUNDS pp pp pp
4.8632646893740983e+00 3.0142735310625977e+01
4.8632646893740983e+00 3.0142735310625977e+01
4.8632646893740983e+00 3.0142735310625977e+01
ITEM: ATOMS id type x y z fx fy fz
1555 3 26.4519 20.0881 28.7398 9.72009 -19.1168 -15.7495
1556 4 19.9548 27.6758 28.8502 -34.005 13.4702 -19.8626
ITEM: TIMESTEP
60390
ITEM: NUMBER OF ATOMS
2
ITEM: BOX BOUNDS pp pp pp
4.8631790701811557e+00 3.0142820929818917e+01
4.8631790701811557e+00 3.0142820929818917e+01
4.8631790701811557e+00 3.0142820929818917e+01
ITEM: ATOMS id type x y z fx fy fz
1555 3 26.4554 20.088 28.7352 7.25102 -17.5233 -14.4076
1556 4 19.9556 27.6755 28.8597 -26.6241 -66.5895 23.3304
ITEM: TIMESTEP
60400
ITEM: NUMBER OF ATOMS
2
ITEM: BOX BOUNDS pp pp pp
4.8630879333922330e+00 3.0142912066607838e+01
4.8630879333922330e+00 3.0142912066607838e+01
4.8630879333922330e+00 3.0142912066607838e+01
ITEM: ATOMS id type x y z fx fy fz
1555 3 26.4595 20.0866 28.7296 5.66287 -16.5357 -12.5234
1556 4 19.954 27.6705 28.8705 -26.329 -28.9621 -18.524
ITEM: TIMESTEP
60410
ITEM: NUMBER OF ATOMS
2
ITEM: BOX BOUNDS pp pp pp
4.8629915857906791e+00 3.0143008414209394e+01
4.8629915857906791e+00 3.0143008414209394e+01
4.8629915857906791e+00 3.0143008414209394e+01
ITEM: ATOMS id type x y z fx fy fz
1555 3 26.464 20.0839 28.7231 3.46766 -14.3838 -10.146
1556 4 19.9501 27.6628 28.88 -15.7102 5.58236 -23.8619
ITEM: TIMESTEP
60420
ITEM: NUMBER OF ATOMS
2
ITEM: BOX BOUNDS pp pp pp
4.8628910203869680e+00 3.0143108979613103e+01
4.8628910203869680e+00 3.0143108979613103e+01
4.8628910203869680e+00 3.0143108979613103e+01
ITEM: ATOMS id type x y z fx fy fz
1555 3 26.4687 20.0803 28.7158 -1.08914 -9.0211 -7.34125
1556 4 19.9448 27.6552 28.8882 0.00291995 -5.61536 60.1695
ITEM: TIMESTEP
60430
ITEM: NUMBER OF ATOMS
2
ITEM: BOX BOUNDS pp pp pp
4.8627881846350114e+00 3.0143211815365063e+01
4.8627881846350114e+00 3.0143211815365063e+01
4.8627881846350114e+00 3.0143211815365063e+01
ITEM: ATOMS id type x y z fx fy fz
1555 3 26.4733 20.076 28.708 -6.0672 -2.71972 -4.27885
1556 4 19.9398 27.6476 28.9004 35.5722 40.8942 10.4508
ITEM: TIMESTEP
60440
ITEM: NUMBER OF ATOMS
2
ITEM: BOX BOUNDS pp pp pp
4.8626854020670205e+00 3.0143314597933049e+01
4.8626854020670205e+00 3.0143314597933049e+01
4.8626854020670205e+00 3.0143314597933049e+01
ITEM: ATOMS id type x y z fx fy fz
1555 3 26.4775 20.0715 28.6999 -11.9066 5.00519 -1.08996
1556 4 19.9372 27.6433 28.9142 1.76326 36.0639 11.4231
ITEM: TIMESTEP
60450
ITEM: NUMBER OF ATOMS
2
ITEM: BOX BOUNDS pp pp pp
4.8625853121521665e+00 3.0143414687847905e+01
4.8625853121521665e+00 3.0143414687847905e+01
4.8625853121521665e+00 3.0143414687847905e+01
ITEM: ATOMS id type x y z fx fy fz
1555 3 26.4808 20.0674 28.6918 -18.1107 13.5368 2.07052
1556 4 19.9356 27.6413 28.9291 36.7658 -50.4183 36.629
ITEM: TIMESTEP
60460
ITEM: NUMBER OF ATOMS
2
ITEM: BOX BOUNDS pp pp pp
4.8624901745842433e+00 3.0143509825415830e+01
4.8624901745842433e+00 3.0143509825415830e+01
4.8624901745842433e+00 3.0143509825415830e+01
ITEM: ATOMS id type x y z fx fy fz
1555 3 26.4828 20.0642 28.6837 -17.0853 14.0186 4.76792
1556 4 19.9362 27.636 28.9467 -21.8539 -27.303 -12.2629
ITEM: TIMESTEP
60470
ITEM: NUMBER OF ATOMS
2
ITEM: BOX BOUNDS pp pp pp
4.8624000513197245e+00 3.0143599948680347e+01
4.8624000513197245e+00 3.0143599948680347e+01
4.8624000513197245e+00 3.0143599948680347e+01
ITEM: ATOMS id type x y z fx fy fz
1555 3 26.4837 20.062 28.676 -11.9891 9.99203 6.90829
1556 4 19.9358 27.6279 28.9632 7.77073 -36.3717 -45.065
ITEM: TIMESTEP
60480
ITEM: NUMBER OF ATOMS
2
ITEM: BOX BOUNDS pp pp pp
4.8623133452959841e+00 3.0143686654704091e+01
4.8623133452959841e+00 3.0143686654704091e+01
4.8623133452959841e+00 3.0143686654704091e+01
ITEM: ATOMS id type x y z fx fy fz
1555 3 26.4836 20.0605 28.6688 -2.28726 0.733874 8.30694
1556 4 19.9354 27.6164 28.9769 -20.8789 -50.1241 40.9634
ITEM: TIMESTEP
60490
ITEM: NUMBER OF ATOMS
2
ITEM: BOX BOUNDS pp pp pp
4.8622270500719686e+00 3.0143772949928103e+01
4.8622270500719686e+00 3.0143772949928103e+01
4.8622270500719686e+00 3.0143772949928103e+01
ITEM: ATOMS id type x y z fx fy fz
1555 3 26.4834 20.059 28.6622 9.62052 -11.0791 8.99546
1556 4 19.9338 27.6015 28.9927 -3.4877 35.5887 -32.3891
ITEM: TIMESTEP
60500
ITEM: NUMBER OF ATOMS
2
ITEM: BOX BOUNDS pp pp pp
4.8621375613869375e+00 3.0143862438613141e+01
4.8621375613869375e+00 3.0143862438613141e+01
4.8621375613869375e+00 3.0143862438613141e+01
ITEM: ATOMS id type x y z fx fy fz
1555 3 26.4839 20.0568 28.6563 16.6862 -17.4189 9.33263
1556 4 19.9313 27.5891 29.0067 -21.3712 53.7993 11.4618
ITEM: TIMESTEP
60510
ITEM: NUMBER OF ATOMS
2
ITEM: BOX BOUNDS pp pp pp
4.8620427042557441e+00 3.0143957295744343e+01
4.8620427042557441e+00 3.0143957295744343e+01
4.8620427042557441e+00 3.0143957295744343e+01
ITEM: ATOMS id type x y z fx fy fz
1555 3 26.4856 20.0534 28.651 15.7803 -14.7986 9.59638
1556 4 19.9277 27.581 29.0216 13.4533 20.7932 40.7457
ITEM: TIMESTEP
60520
ITEM: NUMBER OF ATOMS
2
ITEM: BOX BOUNDS pp pp pp
4.8619426550672955e+00 3.0144057344932790e+01
4.8619426550672955e+00 3.0144057344932790e+01
4.8619426550672955e+00 3.0144057344932790e+01
ITEM: ATOMS id type x y z fx fy fz
1555 3 26.4884 20.0489 28.6464 10.1127 -6.96109 9.74106
1556 4 19.9242 27.5754 29.0393 -36.5438 42.2565 -29.216
ITEM: TIMESTEP
60530
ITEM: NUMBER OF ATOMS
2
ITEM: BOX BOUNDS pp pp pp
4.8618394789681805e+00 3.0144160521031907e+01
4.8618394789681805e+00 3.0144160521031907e+01
4.8618394789681805e+00 3.0144160521031907e+01
ITEM: ATOMS id type x y z fx fy fz
1555 3 26.4918 20.0439 28.6426 -1.45456 7.37145 9.95849
1556 4 19.9185 27.5725 29.055 -2.4766 -28.6825 -31.0569
ITEM: TIMESTEP
60540
ITEM: NUMBER OF ATOMS
2
ITEM: BOX BOUNDS pp pp pp
4.8617368725912922e+00 3.0144263127408795e+01
4.8617368725912922e+00 3.0144263127408795e+01
4.8617368725912922e+00 3.0144263127408795e+01
ITEM: ATOMS id type x y z fx fy fz
1555 3 26.4952 20.0395 28.6395 -10.6358 18.6726 9.80871
1556 4 19.9121 27.5674 29.0683 -5.42806 -62.7928 4.72139
ITEM: TIMESTEP
60550
ITEM: NUMBER OF ATOMS
2
ITEM: BOX BOUNDS pp pp pp
4.8616381034219724e+00 3.0144361896578125e+01
4.8616381034219724e+00 3.0144361896578125e+01
4.8616381034219724e+00 3.0144361896578125e+01
ITEM: ATOMS id type x y z fx fy fz
1555 3 26.4979 20.0363 28.637 -13.5236 22.4596 9.08798
1556 4 19.9052 27.5578 29.0811 -16.1092 3.88093 -60.8478
ITEM: TIMESTEP
60560
ITEM: NUMBER OF ATOMS
2
ITEM: BOX BOUNDS pp pp pp
4.8615447889499084e+00 3.0144455211050193e+01
4.8615447889499084e+00 3.0144455211050193e+01
4.8615447889499084e+00 3.0144455211050193e+01
ITEM: ATOMS id type x y z fx fy fz
1555 3 26.4996 20.0348 28.6353 -13.8723 23.0353 8.09567
1556 4 19.8972 27.5476 29.0895 20.3283 -7.90167 -13.4573
ITEM: TIMESTEP
60570
ITEM: NUMBER OF ATOMS
2
ITEM: BOX BOUNDS pp pp pp
4.8614573511514205e+00 3.0144542648848677e+01
4.8614573511514205e+00 3.0144542648848677e+01
4.8614573511514205e+00 3.0144542648848677e+01
ITEM: ATOMS id type x y z fx fy fz
1555 3 26.5002 20.0349 28.6341 -9.80192 18.2655 6.78645
1556 4 19.8907 27.5371 29.0968 15.5774 7.77246 36.9461
ITEM: TIMESTEP
60580
ITEM: NUMBER OF ATOMS
2
ITEM: BOX BOUNDS pp pp pp
4.8613745976676643e+00 3.0144625402332423e+01
4.8613745976676643e+00 3.0144625402332423e+01
4.8613745976676643e+00 3.0144625402332423e+01
ITEM: ATOMS id type x y z fx fy fz
1555 3 26.5002 20.0364 28.6334 -3.77949 10.9737 5.42503
1556 4 19.8856 27.5278 29.1061 9.7667 79.3208 -35.4352
ITEM: TIMESTEP
60590
ITEM: NUMBER OF ATOMS
2
ITEM: BOX BOUNDS pp pp pp
4.8612945291705181e+00 3.0144705470829571e+01
4.8612945291705181e+00 3.0144705470829571e+01
4.8612945291705181e+00 3.0144705470829571e+01
ITEM: ATOMS id type x y z fx fy fz
1555 3 26.4999 20.0387 28.6331 -1.6372 7.78757 4.51821
1556 4 19.8812 27.5242 29.1136 -3.80638 18.0986 14.3866
ITEM: TIMESTEP
60600
ITEM: NUMBER OF ATOMS
2
ITEM: BOX BOUNDS pp pp pp
4.8612158598222699e+00 3.0144784140177819e+01
4.8612158598222699e+00 3.0144784140177819e+01
4.8612158598222699e+00 3.0144784140177819e+01
ITEM: ATOMS id type x y z fx fy fz
1555 3 26.4995 20.0415 28.6331 -0.550372 5.50851 3.949
1556 4 19.877 27.5225 29.1216 23.5403 -22.1796 -8.00946
ITEM: TIMESTEP
60610
ITEM: NUMBER OF ATOMS
2
ITEM: BOX BOUNDS pp pp pp
4.8611375305845037e+00 3.0144862469415589e+01
4.8611375305845037e+00 3.0144862469415589e+01
4.8611375305845037e+00 3.0144862469415589e+01
ITEM: ATOMS id type x y z fx fy fz
1555 3 26.499 20.0447 28.6334 2.97352 0.235163 3.50941
1556 4 19.8738 27.5195 29.1287 -52.3656 5.62938 -60.703
ITEM: TIMESTEP
60620
ITEM: NUMBER OF ATOMS
2
ITEM: BOX BOUNDS pp pp pp
4.8610582440193415e+00 3.0144941755980753e+01
4.8610582440193415e+00 3.0144941755980753e+01
4.8610582440193415e+00 3.0144941755980753e+01
ITEM: ATOMS id type x y z fx fy fz
1555 3 26.4987 20.048 28.634 3.98499 -2.38601 3.60394
1556 4 19.8673 27.5162 29.131 5.88824 -44.393 -33.7334
ITEM: TIMESTEP
60630
ITEM: NUMBER OF ATOMS
2
ITEM: BOX BOUNDS pp pp pp
4.8609775318414812e+00 3.0145022468158608e+01
4.8609775318414812e+00 3.0145022468158608e+01
4.8609775318414812e+00 3.0145022468158608e+01
ITEM: ATOMS id type x y z fx fy fz
1555 3 26.4988 20.051 28.6348 7.32019 -7.75259 3.86225
1556 4 19.8604 27.5096 29.1305 -15.0093 -21.377 -2.85062
ITEM: TIMESTEP
60640
ITEM: NUMBER OF ATOMS
2
ITEM: BOX BOUNDS pp pp pp
4.8608949725700299e+00 3.0145105027430063e+01
4.8608949725700299e+00 3.0145105027430063e+01
4.8608949725700299e+00 3.0145105027430063e+01
ITEM: ATOMS id type x y z fx fy fz
1555 3 26.4994 20.0535 28.636 9.82466 -12.2514 4.48819
1556 4 19.8526 27.5018 29.1289 -14.4283 67.8845 -48.8239
ITEM: TIMESTEP
60650
ITEM: NUMBER OF ATOMS
2
ITEM: BOX BOUNDS pp pp pp
4.8608106411098593e+00 3.0145189358890235e+01
4.8608106411098593e+00 3.0145189358890235e+01
4.8608106411098593e+00 3.0145189358890235e+01
ITEM: ATOMS id type x y z fx fy fz
1555 3 26.5006 20.0552 28.6374 4.91852 -8.45871 5.89766
1556 4 19.8435 27.4988 29.1242 3.44605 34.6637 25.1674
ITEM: TIMESTEP
60660
ITEM: NUMBER OF ATOMS
2
ITEM: BOX BOUNDS pp pp pp
4.8607263699853061e+00 3.0145273630014799e+01
4.8607263699853061e+00 3.0145273630014799e+01
4.8607263699853061e+00 3.0145273630014799e+01
ITEM: ATOMS id type x y z fx fy fz
1555 3 26.5022 20.0563 28.6393 -4.07561 -0.0822989 7.67801
1556 4 19.8349 27.4992 29.1208 29.7447 23.4948 5.3648
ITEM: TIMESTEP
60670
ITEM: NUMBER OF ATOMS
2
ITEM: BOX BOUNDS pp pp pp
4.8606450663689778e+00 3.0145354933631129e+01
4.8606450663689778e+00 3.0145354933631129e+01
4.8606450663689778e+00 3.0145354933631129e+01
ITEM: ATOMS id type x y z fx fy fz
1555 3 26.5035 20.0573 28.6418 -13.5689 8.92725 9.3562
1556 4 19.8282 27.5019 29.1177 -15.2104 40.1988 -49.883
ITEM: TIMESTEP
60680
ITEM: NUMBER OF ATOMS
2
ITEM: BOX BOUNDS pp pp pp
4.8605697610285485e+00 3.0145430238971560e+01
4.8605697610285485e+00 3.0145430238971560e+01
4.8605697610285485e+00 3.0145430238971560e+01
ITEM: ATOMS id type x y z fx fy fz
1555 3 26.5037 20.0591 28.6449 -24.1416 19.3126 10.7564
1556 4 19.8211 27.5072 29.111 33.332 -44.7716 -2.93747
ITEM: TIMESTEP
60690
ITEM: NUMBER OF ATOMS
2
ITEM: BOX BOUNDS pp pp pp
4.8605033107304596e+00 3.0145496689269642e+01
4.8605033107304596e+00 3.0145496689269642e+01
4.8605033107304596e+00 3.0145496689269642e+01
ITEM: ATOMS id type x y z fx fy fz
1555 3 26.5023 20.0621 28.6488 -26.2124 20.4997 11.0518
1556 4 19.8164 27.5093 29.1034 31.0302 -49.4471 -30.3567
ITEM: TIMESTEP
60700
ITEM: NUMBER OF ATOMS
2
ITEM: BOX BOUNDS pp pp pp
4.8604464189753998e+00 3.0145553581024700e+01
4.8604464189753998e+00 3.0145553581024700e+01
4.8604464189753998e+00 3.0145553581024700e+01
ITEM: ATOMS id type x y z fx fy fz
1555 3 26.499 20.0666 28.6535 -18.9174 11.6903 10.1853
1556 4 19.8139 27.5074 29.0932 -28.8122 0.989985 -49.9248
ITEM: TIMESTEP
60710
ITEM: NUMBER OF ATOMS
2
ITEM: BOX BOUNDS pp pp pp
4.8603975332186167e+00 3.0145602466781479e+01
4.8603975332186167e+00 3.0145602466781479e+01
4.8603975332186167e+00 3.0145602466781479e+01
ITEM: ATOMS id type x y z fx fy fz
1555 3 26.4943 20.072 28.6589 -9.58135 1.23121 8.80595
1556 4 19.8102 27.5051 29.0793 46.7174 -3.76944 10.4125
ITEM: TIMESTEP
60720
ITEM: NUMBER OF ATOMS
2
ITEM: BOX BOUNDS pp pp pp
4.8603545145730376e+00 3.0145645485427060e+01
4.8603545145730376e+00 3.0145645485427060e+01
4.8603545145730376e+00 3.0145645485427060e+01
ITEM: ATOMS id type x y z fx fy fz
1555 3 26.489 20.0774 28.6649 3.00997 -12.0999 7.059
1556 4 19.8093 27.5029 29.0659 -9.77217 41.114 19.9054
ITEM: TIMESTEP
60730
ITEM: NUMBER OF ATOMS
2
ITEM: BOX BOUNDS pp pp pp
4.8603149461518829e+00 3.0145685053848219e+01
4.8603149461518829e+00 3.0145685053848219e+01
4.8603149461518829e+00 3.0145685053848219e+01
ITEM: ATOMS id type x y z fx fy fz
1555 3 26.4838 20.082 28.6715 10.9109 -19.4458 5.62874
1556 4 19.808 27.5043 29.0536 -30.969 73.1964 -30.5432
ITEM: TIMESTEP
60740
ITEM: NUMBER OF ATOMS
2
ITEM: BOX BOUNDS pp pp pp
4.8602779069766004e+00 3.0145722093023501e+01
4.8602779069766004e+00 3.0145722093023501e+01
4.8602779069766004e+00 3.0145722093023501e+01
ITEM: ATOMS id type x y z fx fy fz
1555 3 26.4794 20.0852 28.6784 9.91682 -16.1881 4.84224
1556 4 19.8045 27.511 29.0398 19.0915 -11.5219 31.0511
ITEM: TIMESTEP
60750
ITEM: NUMBER OF ATOMS
2
ITEM: BOX BOUNDS pp pp pp
4.8602446808924551e+00 3.0145755319107643e+01
4.8602446808924551e+00 3.0145755319107643e+01
4.8602446808924551e+00 3.0145755319107643e+01
ITEM: ATOMS id type x y z fx fy fz
1555 3 26.4757 20.0872 28.6857 8.26907 -11.6359 4.21447
1556 4 19.8021 27.5177 29.0274 -9.24566 -7.48809 -41.0344
ITEM: TIMESTEP
60760
ITEM: NUMBER OF ATOMS
2
ITEM: BOX BOUNDS pp pp pp
4.8602167449101561e+00 3.0145783255089938e+01
4.8602167449101561e+00 3.0145783255089938e+01
4.8602167449101561e+00 3.0145783255089938e+01
ITEM: ATOMS id type x y z fx fy fz
1555 3 26.4726 20.0884 28.6933 5.72541 -5.70856 3.69435
1556 4 19.7985 27.5234 29.0122 -52.0479 -28.4553 -29.0807
ITEM: TIMESTEP
60770
ITEM: NUMBER OF ATOMS
2
ITEM: BOX BOUNDS pp pp pp
4.8601953677866305e+00 3.0145804632213462e+01
4.8601953677866305e+00 3.0145804632213462e+01
4.8601953677866305e+00 3.0145804632213462e+01
ITEM: ATOMS id type x y z fx fy fz
1555 3 26.4699 20.0892 28.7012 2.54708 1.0709 3.15483
1556 4 19.792 27.5265 28.9944 56.4279 -47.2237 -8.46378
ITEM: TIMESTEP
60780
ITEM: NUMBER OF ATOMS
2
ITEM: BOX BOUNDS pp pp pp
4.8601813264312543e+00 3.0145818673568833e+01
4.8601813264312543e+00 3.0145818673568833e+01
4.8601813264312543e+00 3.0145818673568833e+01
ITEM: ATOMS id type x y z fx fy fz
1555 3 26.4674 20.09 28.7093 5.6559 0.742688 2.18953
1556 4 19.7885 27.5261 28.976 -26.2845 3.98838 3.92739
ITEM: TIMESTEP
60790
ITEM: NUMBER OF ATOMS
2
ITEM: BOX BOUNDS pp pp pp
4.8601734610082428e+00 3.0145826538991841e+01
4.8601734610082428e+00 3.0145826538991841e+01
4.8601734610082428e+00 3.0145826538991841e+01
ITEM: ATOMS id type x y z fx fy fz
1555 3 26.4653 20.0909 28.7175 7.26178 1.7505 1.08444
1556 4 19.7837 27.526 28.9576 -9.2486 45.35 -0.773701
ITEM: TIMESTEP
60800
ITEM: NUMBER OF ATOMS
2
ITEM: BOX BOUNDS pp pp pp
4.8601702698523805e+00 3.0145829730147707e+01
4.8601702698523805e+00 3.0145829730147707e+01
4.8601702698523805e+00 3.0145829730147707e+01
ITEM: ATOMS id type x y z fx fy fz
1555 3 26.4638 20.092 28.7258 4.75264 6.78277 -0.128007
1556 4 19.7784 27.5292 28.9398 45.0843 17.6609 54.9897
ITEM: TIMESTEP
60810
ITEM: NUMBER OF ATOMS
2
ITEM: BOX BOUNDS pp pp pp
4.8601709417249825e+00 3.0145829058275098e+01
4.8601709417249825e+00 3.0145829058275098e+01
4.8601709417249825e+00 3.0145829058275098e+01
ITEM: ATOMS id type x y z fx fy fz