ITEM: TIMESTEP
60000
ITEM: NUMBER OF ATOMS
2
ITEM: BOX BOUNDS pp pp pp
4.8237734163738981e+00 3.0182226583626413e+01
4.8237734163738981e+00 3.0182226583626413e+01
4.8237734163738981e+00 3.0182226583626413e+01
ITEM: ATOMS id type x y z fx fy fz
1556 4 21.3162 21.5811 8.67513 -54.3875 -39.092 -67.379
1555 3 19.9576 20.8628 24.1351 1.59637 9.66285 21.9515
ITEM: TIMESTEP
60010
ITEM: NUMBER OF ATOMS
2
ITEM: BOX BOUNDS pp pp pp
4.8239410475617834e+00 3.0182058952438521e+01
4.8239410475617834e+00 3.0182058952438521e+01
4.8239410475617834e+00 3.0182058952438521e+01
ITEM: ATOMS id type x y z fx fy fz
1556 4 21.3147 21.5823 8.67269 22.9552 1.86338 13.5011
1555 3 19.9533 20.8706 24.1402 -1.64952 6.61802 7.4769
ITEM: TIMESTEP
60020
ITEM: NUMBER OF ATOMS
2
ITEM: BOX BOUNDS pp pp pp
4.8241219819215626e+00 3.0181878018078734e+01
4.8241219819215626e+00 3.0181878018078734e+01
4.8241219819215626e+00 3.0181878018078734e+01
ITEM: ATOMS id type x y z fx fy fz
1556 4 21.3134 21.5841 8.67048 -74.2935 56.7616 -25.6625
1555 3 19.9489 20.8788 24.1458 -5.20807 3.7844 -7.90323
ITEM: TIMESTEP
60030
ITEM: NUMBER OF ATOMS
2
ITEM: BOX BOUNDS pp pp pp
4.8243120789312268e+00 3.0181687921069070e+01
4.8243120789312268e+00 3.0181687921069070e+01
4.8243120789312268e+00 3.0181687921069070e+01
ITEM: ATOMS id type x y z fx fy fz
1556 4 21.3065 21.5895 8.6677 -53.0579 -34.3907 75.3075
1555 3 19.9441 20.8873 24.1507 -8.97449 1.13636 -24.4281
ITEM: TIMESTEP
60040
ITEM: NUMBER OF ATOMS
2
ITEM: BOX BOUNDS pp pp pp
4.8245070253162705e+00 3.0181492974684033e+01
4.8245070253162705e+00 3.0181492974684033e+01
4.8245070253162705e+00 3.0181492974684033e+01
ITEM: ATOMS id type x y z fx fy fz
1556 4 21.2953 21.5939 8.67047 21.8303 54.5371 38.4465
1555 3 19.9386 20.8959 24.154 -10.8654 -0.351627 -28.1421
ITEM: TIMESTEP
60050
ITEM: NUMBER OF ATOMS
2
ITEM: BOX BOUNDS pp pp pp
4.8247047715335931e+00 3.0181295228466713e+01
4.8247047715335931e+00 3.0181295228466713e+01
4.8247047715335931e+00 3.0181295228466713e+01
ITEM: ATOMS id type x y z fx fy fz
1556 4 21.2845 21.6014 8.6767 -41.3883 -27.7491 -48.2537
1555 3 19.9324 20.9044 24.1553 -10.9635 -0.781947 -20.562
ITEM: TIMESTEP
60060
ITEM: NUMBER OF ATOMS
2
ITEM: BOX BOUNDS pp pp pp
4.8249052596335993e+00 3.0181094740366710e+01
4.8249052596335993e+00 3.0181094740366710e+01
4.8249052596335993e+00 3.0181094740366710e+01
ITEM: ATOMS id type x y z fx fy fz
1556 4 21.2717 21.6077 8.67964 70.1251 -28.0638 -38.2363
1555 3 19.9254 20.9129 24.1551 -11.2735 -1.22417 -16.9573
ITEM: TIMESTEP
60070
ITEM: NUMBER OF ATOMS
2
ITEM: BOX BOUNDS pp pp pp
4.8251079843529396e+00 3.0180892015647366e+01
4.8251079843529396e+00 3.0180892015647366e+01
4.8251079843529396e+00 3.0180892015647366e+01
ITEM: ATOMS id type x y z fx fy fz
1556 4 21.2632 21.6109 8.67895 -11.379 -35.8945 -42.479
1555 3 19.9175 20.9213 24.1536 -11.6964 -1.6831 -17.0243
ITEM: TIMESTEP
60080
ITEM: NUMBER OF ATOMS
2
ITEM: BOX BOUNDS pp pp pp
4.8253120049613845e+00 3.0180687995038916e+01
4.8253120049613845e+00 3.0180687995038916e+01
4.8253120049613845e+00 3.0180687995038916e+01
ITEM: ATOMS id type x y z fx fy fz
1556 4 21.2552 21.6117 8.67445 28.9303 19.6867 -20.5414
1555 3 19.9088 20.9296 24.1509 -12.3957 -2.30538 -21.9003
ITEM: TIMESTEP
60090
ITEM: NUMBER OF ATOMS
2
ITEM: BOX BOUNDS pp pp pp
4.8255156040043303e+00 3.0180484395995975e+01
4.8255156040043303e+00 3.0180484395995975e+01
4.8255156040043303e+00 3.0180484395995975e+01
ITEM: ATOMS id type x y z fx fy fz
1556 4 21.2483 21.6131 8.66803 -75.8299 -17.7105 10.8951
1555 3 19.8992 20.9377 24.1466 -12.7001 -2.81381 -26.5745
ITEM: TIMESTEP
60100
ITEM: NUMBER OF ATOMS
2
ITEM: BOX BOUNDS pp pp pp
4.8257167585838179e+00 3.0180283241416490e+01
4.8257167585838179e+00 3.0180283241416490e+01
4.8257167585838179e+00 3.0180283241416490e+01
ITEM: ATOMS id type x y z fx fy fz
1556 4 21.2365 21.6138 8.66312 -1.23437 15.8553 81.114
1555 3 19.8887 20.9456 24.1403 -11.8801 -2.89613 -25.4207
ITEM: TIMESTEP
60110
ITEM: NUMBER OF ATOMS
2
ITEM: BOX BOUNDS pp pp pp
4.8259142362879750e+00 3.0180085763712334e+01
4.8259142362879750e+00 3.0180085763712334e+01
4.8259142362879750e+00 3.0180085763712334e+01
ITEM: ATOMS id type x y z fx fy fz
1556 4 21.2232 21.6162 8.66416 -51.9028 61.8697 -4.45625
1555 3 19.8774 20.9533 24.1323 -8.64576 -1.97067 -8.85221
ITEM: TIMESTEP
60120
ITEM: NUMBER OF ATOMS
2
ITEM: BOX BOUNDS pp pp pp
4.8261092190966544e+00 3.0179890780903662e+01
4.8261092190966544e+00 3.0179890780903662e+01
4.8261092190966544e+00 3.0179890780903662e+01
ITEM: ATOMS id type x y z fx fy fz
1556 4 21.2058 21.6223 8.66619 -43.2305 -68.085 12.4237
1555 3 19.8654 20.9609 24.1237 -4.72219 -0.89698 10.6849
ITEM: TIMESTEP
60130
ITEM: NUMBER OF ATOMS
2
ITEM: BOX BOUNDS pp pp pp
4.8263035696927812e+00 3.0179696430307537e+01
4.8263035696927812e+00 3.0179696430307537e+01
4.8263035696927812e+00 3.0179696430307537e+01
ITEM: ATOMS id type x y z fx fy fz
1556 4 21.1851 21.6251 8.66849 44.5165 36.769 -70.579
1555 3 19.8531 20.9684 24.1159 -0.838729 -0.0330052 28.0407
ITEM: TIMESTEP
60140
ITEM: NUMBER OF ATOMS
2
ITEM: BOX BOUNDS pp pp pp
4.8264987619619095e+00 3.0179501238038405e+01
4.8264987619619095e+00 3.0179501238038405e+01
4.8264987619619095e+00 3.0179501238038405e+01
ITEM: ATOMS id type x y z fx fy fz
1556 4 21.1669 21.6291 8.66574 -10.3059 -48.0532 -63.4465
1555 3 19.8407 20.9758 24.11 1.55894 -0.0602173 32.365
ITEM: TIMESTEP
60150
ITEM: NUMBER OF ATOMS
2
ITEM: BOX BOUNDS pp pp pp
4.8266945111566635e+00 3.0179305488843656e+01
4.8266945111566635e+00 3.0179305488843656e+01
4.8266945111566635e+00 3.0179305488843656e+01
ITEM: ATOMS id type x y z fx fy fz
1556 4 21.1486 21.6303 8.65716 11.8135 -11.3914 -33.1983
1555 3 19.8284 20.9833 24.1064 1.99661 -1.18563 20.2432
ITEM: TIMESTEP
60160
ITEM: NUMBER OF ATOMS
2
ITEM: BOX BOUNDS pp pp pp
4.8268883191791261e+00 3.0179111680821187e+01
4.8268883191791261e+00 3.0179111680821187e+01
4.8268883191791261e+00 3.0179111680821187e+01
ITEM: ATOMS id type x y z fx fy fz
1556 4 21.1308 21.6299 8.64576 -33.5712 13.5139 19.8544
1555 3 19.8163 20.9907 24.1042 1.50405 -2.84967 -0.543982
ITEM: TIMESTEP
60170
ITEM: NUMBER OF ATOMS
2
ITEM: BOX BOUNDS pp pp pp
4.8270767606029512e+00 3.0178923239397356e+01
4.8270767606029512e+00 3.0178923239397356e+01
4.8270767606029512e+00 3.0178923239397356e+01
ITEM: ATOMS id type x y z fx fy fz
1556 4 21.1114 21.6308 8.6361 17.8415 38.8287 87.5971
1555 3 19.8043 20.9978 24.102 1.6366 -4.28712 -18.186
ITEM: TIMESTEP
60180
ITEM: NUMBER OF ATOMS
2
ITEM: BOX BOUNDS pp pp pp
4.8272574882303871e+00 3.0178742511769919e+01
4.8272574882303871e+00 3.0178742511769919e+01
4.8272574882303871e+00 3.0178742511769919e+01
ITEM: ATOMS id type x y z fx fy fz
1556 4 21.0918 21.6341 8.6324 -84.032 -12.4776 21.1457
1555 3 19.7924 21.0047 24.0985 3.89767 -4.80749 -21.4059
ITEM: TIMESTEP
60190
ITEM: NUMBER OF ATOMS
2
ITEM: BOX BOUNDS pp pp pp
4.8274305765927323e+00 3.0178569423407581e+01
4.8274305765927323e+00 3.0178569423407581e+01
4.8274305765927323e+00 3.0178569423407581e+01
ITEM: ATOMS id type x y z fx fy fz
1556 4 21.0679 21.6369 8.63187 84.6262 -3.27966 58.6415
1555 3 19.7808 21.0112 24.0936 7.44046 -4.81743 -16.3616
ITEM: TIMESTEP
60200
ITEM: NUMBER OF ATOMS
2
ITEM: BOX BOUNDS pp pp pp
4.8275977397404599e+00 3.0178402260259851e+01
4.8275977397404599e+00 3.0178402260259851e+01
4.8275977397404599e+00 3.0178402260259851e+01
ITEM: ATOMS id type x y z fx fy fz
1556 4 21.0485 21.6396 8.63461 -8.25831 15.9024 -75.1111
1555 3 19.7698 21.0174 24.0875 12.3985 -4.20265 -1.45873
ITEM: TIMESTEP
60210
ITEM: NUMBER OF ATOMS
2
ITEM: BOX BOUNDS pp pp pp
4.8277615801095166e+00 3.0178238419890789e+01
4.8277615801095166e+00 3.0178238419890789e+01
4.8277615801095166e+00 3.0178238419890789e+01
ITEM: ATOMS id type x y z fx fy fz
1556 4 21.0304 21.6423 8.63335 73.799 -108.185 -3.26033
1555 3 19.7597 21.0232 24.0813 16.4036 -3.96345 6.31893
ITEM: TIMESTEP
60220
ITEM: NUMBER OF ATOMS
2
ITEM: BOX BOUNDS pp pp pp
4.8279234409134357e+00 3.0178076559086872e+01
4.8279234409134357e+00 3.0178076559086872e+01
4.8279234409134357e+00 3.0178076559086872e+01
ITEM: ATOMS id type x y z fx fy fz
1556 4 21.0167 21.6386 8.63033 12.252 47.3771 -74.945
1555 3 19.7508 21.0288 24.0755 19.6176 -3.85101 9.85995
ITEM: TIMESTEP
60230
ITEM: NUMBER OF ATOMS
2
ITEM: BOX BOUNDS pp pp pp
4.8280834286770578e+00 3.0177916571323252e+01
4.8280834286770578e+00 3.0177916571323252e+01
4.8280834286770578e+00 3.0177916571323252e+01
ITEM: ATOMS id type x y z fx fy fz
1556 4 21.0053 21.6366 8.62325 45.1697 -36.6119 53.9892
1555 3 19.7432 21.0341 24.0704 21.1708 -4.05196 4.62487
ITEM: TIMESTEP
60240
ITEM: NUMBER OF ATOMS
2
ITEM: BOX BOUNDS pp pp pp
4.8282403699443019e+00 3.0177759630056009e+01
4.8282403699443019e+00 3.0177759630056009e+01
4.8282403699443019e+00 3.0177759630056009e+01
ITEM: ATOMS id type x y z fx fy fz
1556 4 20.9963 21.6331 8.61948 -52.5204 25.4416 47.952
1555 3 19.7373 21.0391 24.0656 22.6611 -3.66563 5.04784
ITEM: TIMESTEP
60250
ITEM: NUMBER OF ATOMS
2
ITEM: BOX BOUNDS pp pp pp
4.8283940149393683e+00 3.0177605985060943e+01
4.8283940149393683e+00 3.0177605985060943e+01
4.8283940149393683e+00 3.0177605985060943e+01
ITEM: ATOMS id type x y z fx fy fz
1556 4 20.9841 21.6311 8.62019 -11.6457 33.7722 57.8853
1555 3 19.7329 21.0438 24.0613 23.9934 -2.62894 12.206
ITEM: TIMESTEP
60260
ITEM: NUMBER OF ATOMS
2
ITEM: BOX BOUNDS pp pp pp
4.8285461699036407e+00 3.0177453830096670e+01
4.8285461699036407e+00 3.0177453830096670e+01
4.8285461699036407e+00 3.0177453830096670e+01
ITEM: ATOMS id type x y z fx fy fz
1556 4 20.9711 21.6317 8.62548 31.3236 -0.396238 33.1919
1555 3 19.7304 21.0483 24.0579 24.9575 -0.988135 25.7855
ITEM: TIMESTEP
60270
ITEM: NUMBER OF ATOMS
2
ITEM: BOX BOUNDS pp pp pp
4.8287006257453253e+00 3.0177299374254993e+01
4.8287006257453253e+00 3.0177299374254993e+01
4.8287006257453253e+00 3.0177299374254993e+01
ITEM: ATOMS id type x y z fx fy fz
1556 4 20.9598 21.6323 8.63255 -14.9662 -17.4773 -57.5731
1555 3 19.7296 21.0528 24.0564 24.6107 0.776724 38.5576
ITEM: TIMESTEP
60280
ITEM: NUMBER OF ATOMS
2
ITEM: BOX BOUNDS pp pp pp
4.8288613375814311e+00 3.0177138662418891e+01
4.8288613375814311e+00 3.0177138662418891e+01
4.8288613375814311e+00 3.0177138662418891e+01
ITEM: ATOMS id type x y z fx fy fz
1556 4 20.9491 21.631 8.63565 78.1297 -47.5509 -33.8736
1555 3 19.7306 21.0573 24.0575 21.4939 1.76074 36.9854
ITEM: TIMESTEP
60290
ITEM: NUMBER OF ATOMS
2
ITEM: BOX BOUNDS pp pp pp
4.8290300760676654e+00 3.0176969923932646e+01
4.8290300760676654e+00 3.0176969923932646e+01
4.8290300760676654e+00 3.0176969923932646e+01
ITEM: ATOMS id type x y z fx fy fz
1556 4 20.9434 21.6266 8.63496 13.1559 24.9956 -53.474
1555 3 19.7332 21.0619 24.0613 16.3334 1.88614 22.7708
ITEM: TIMESTEP
60300
ITEM: NUMBER OF ATOMS
2
ITEM: BOX BOUNDS pp pp pp
4.8292060052976318e+00 3.0176793994702692e+01
4.8292060052976318e+00 3.0176793994702692e+01
4.8292060052976318e+00 3.0176793994702692e+01
ITEM: ATOMS id type x y z fx fy fz
1556 4 20.9402 21.6226 8.63135 56.3745 -74.2172 65.8582
1555 3 19.7369 21.0667 24.0667 10.1107 1.23435 -0.156279
ITEM: TIMESTEP
60310
ITEM: NUMBER OF ATOMS
2
ITEM: BOX BOUNDS pp pp pp
4.8293864870849195e+00 3.0176613512915409e+01
4.8293864870849195e+00 3.0176613512915409e+01
4.8293864870849195e+00 3.0176613512915409e+01
ITEM: ATOMS id type x y z fx fy fz
1556 4 20.94 21.6147 8.63206 -49.7895 62.1189 13.3946
1555 3 19.7414 21.0716 24.0722 5.29582 0.653049 -14.5163
ITEM: TIMESTEP
60320
ITEM: NUMBER OF ATOMS
2
ITEM: BOX BOUNDS pp pp pp
4.8295694304096148e+00 3.0176430569590696e+01
4.8295694304096148e+00 3.0176430569590696e+01
4.8295694304096148e+00 3.0176430569590696e+01
ITEM: ATOMS id type x y z fx fy fz
1556 4 20.9376 21.6103 8.63572 55.6733 -2.69866 106.693
1555 3 19.7463 21.0765 24.0766 1.92001 0.0828585 -21.0488
ITEM: TIMESTEP
60330
ITEM: NUMBER OF ATOMS
2
ITEM: BOX BOUNDS pp pp pp
4.8297541381271021e+00 3.0176245861873202e+01
4.8297541381271021e+00 3.0176245861873202e+01
4.8297541381271021e+00 3.0176245861873202e+01
ITEM: ATOMS id type x y z fx fy fz
1556 4 20.9382 21.6063 8.64704 -23.26 -15.157 20.1464
1555 3 19.7513 21.0814 24.0796 1.2715 0.165206 -8.7998
ITEM: TIMESTEP
60340
ITEM: NUMBER OF ATOMS
2
ITEM: BOX BOUNDS pp pp pp
4.8299427811464479e+00 3.0176057218853849e+01
4.8299427811464479e+00 3.0176057218853849e+01
4.8299427811464479e+00 3.0176057218853849e+01
ITEM: ATOMS id type x y z fx fy fz
1556 4 20.9381 21.6013 8.6603 29.6413 9.903 -38.8636
1555 3 19.7564 21.0863 24.082 1.56613 0.260127 8.28836
ITEM: TIMESTEP
60350
ITEM: NUMBER OF ATOMS
2
ITEM: BOX BOUNDS pp pp pp
4.8301387314503543e+00 3.0175861268549944e+01
4.8301387314503543e+00 3.0175861268549944e+01
4.8301387314503543e+00 3.0175861268549944e+01
ITEM: ATOMS id type x y z fx fy fz
1556 4 20.9403 21.596 8.67012 32.5119 -52.4038 -58.4485
1555 3 19.7617 21.0912 24.0849 1.28045 -0.136122 18.0006
ITEM: TIMESTEP
60360
ITEM: NUMBER OF ATOMS
2
ITEM: BOX BOUNDS pp pp pp
4.8303446349891601e+00 3.0175655365011139e+01
4.8303446349891601e+00 3.0175655365011139e+01
4.8303446349891601e+00 3.0175655365011139e+01
ITEM: ATOMS id type x y z fx fy fz
1556 4 20.9458 21.5872 8.6747 38.8187 14.731 -33.4124
1555 3 19.767 21.0961 24.0891 -0.230694 -1.16747 15.328
ITEM: TIMESTEP
60370
ITEM: NUMBER OF ATOMS
2
ITEM: BOX BOUNDS pp pp pp
4.8305616822742046e+00 3.0175438317726091e+01
4.8305616822742046e+00 3.0175438317726091e+01
4.8305616822742046e+00 3.0175438317726091e+01
ITEM: ATOMS id type x y z fx fy fz
1556 4 20.9539 21.5782 8.67602 -35.7933 -31.7851 10.1355
1555 3 19.7723 21.1009 24.0943 -2.47798 -2.49284 4.72855
ITEM: TIMESTEP
60380
ITEM: NUMBER OF ATOMS
2
ITEM: BOX BOUNDS pp pp pp
4.8307897742270942e+00 3.0175210225773206e+01
4.8307897742270942e+00 3.0175210225773206e+01
4.8307897742270942e+00 3.0175210225773206e+01
ITEM: ATOMS id type x y z fx fy fz
1556 4 20.9601 21.5681 8.67787 -15.4887 75.7228 29.8496
1555 3 19.7774 21.1056 24.0999 -4.57562 -3.69014 -5.84837
ITEM: TIMESTEP
60390
ITEM: NUMBER OF ATOMS
2
ITEM: BOX BOUNDS pp pp pp
4.8310284367726464e+00 3.0174971563227658e+01
4.8310284367726464e+00 3.0174971563227658e+01
4.8310284367726464e+00 3.0174971563227658e+01
ITEM: ATOMS id type x y z fx fy fz
1556 4 20.9647 21.5624 8.68284 11.3182 -19.2127 80.7734
1555 3 19.7821 21.1099 24.105 -5.71454 -4.40057 -9.14969
ITEM: TIMESTEP
60400
ITEM: NUMBER OF ATOMS
2
ITEM: BOX BOUNDS pp pp pp
4.8312778555671301e+00 3.0174722144433169e+01
4.8312778555671301e+00 3.0174722144433169e+01
4.8312778555671301e+00 3.0174722144433169e+01
ITEM: ATOMS id type x y z fx fy fz
1556 4 20.9692 21.557 8.69359 -69.6264 41.3788 -27.417
1555 3 19.7865 21.114 24.1096 -5.27184 -4.41583 0.45016
ITEM: TIMESTEP
60410
ITEM: NUMBER OF ATOMS
2
ITEM: BOX BOUNDS pp pp pp
4.8315393646750913e+00 3.0174460635325211e+01
4.8315393646750913e+00 3.0174460635325211e+01
4.8315393646750913e+00 3.0174460635325211e+01
ITEM: ATOMS id type x y z fx fy fz
1556 4 20.9694 21.5541 8.70321 47.2381 1.24142 -22.1541
1555 3 19.7905 21.1177 24.1142 -5.15202 -4.44703 7.38672
ITEM: TIMESTEP
60420
ITEM: NUMBER OF ATOMS
2
ITEM: BOX BOUNDS pp pp pp
4.8318130865656066e+00 3.0174186913434699e+01
4.8318130865656066e+00 3.0174186913434699e+01
4.8318130865656066e+00 3.0174186913434699e+01
ITEM: ATOMS id type x y z fx fy fz
1556 4 20.9721 21.5514 8.71042 9.92419 -37.4906 -72.4513
1555 3 19.7941 21.1211 24.1193 -5.61129 -4.5818 9.51767
ITEM: TIMESTEP
60430
ITEM: NUMBER OF ATOMS
2
ITEM: BOX BOUNDS pp pp pp
4.8320972174321835e+00 3.0173902782568121e+01
4.8320972174321835e+00 3.0173902782568121e+01
4.8320972174321835e+00 3.0173902782568121e+01
ITEM: ATOMS id type x y z fx fy fz
1556 4 20.9765 21.5466 8.71188 25.4974 38.3409 -56.9799
1555 3 19.7973 21.1241 24.125 -7.50354 -5.11336 -0.315602
ITEM: TIMESTEP
60440
ITEM: NUMBER OF ATOMS
2
ITEM: BOX BOUNDS pp pp pp
4.8323876968465331e+00 3.0173612303153774e+01
4.8323876968465331e+00 3.0173612303153774e+01
4.8323876968465331e+00 3.0173612303153774e+01
ITEM: ATOMS id type x y z fx fy fz
1556 4 20.9821 21.5432 8.70827 -39.086 -49.2147 2.48898
1555 3 19.7999 21.1268 24.1306 -10.4483 -5.85882 -19.0535
ITEM: TIMESTEP
60450
ITEM: NUMBER OF ATOMS
2
ITEM: BOX BOUNDS pp pp pp
4.8326791781594363e+00 3.0173320821840875e+01
4.8326791781594363e+00 3.0173320821840875e+01
4.8326791781594363e+00 3.0173320821840875e+01
ITEM: ATOMS id type x y z fx fy fz
1556 4 20.9864 21.5378 8.70477 38.2537 78.0864 68.7041
1555 3 19.8017 21.1291 24.1349 -13.0268 -6.31571 -34.676
ITEM: TIMESTEP
60460
ITEM: NUMBER OF ATOMS
2
ITEM: BOX BOUNDS pp pp pp
4.8329674685869506e+00 3.0173032531413362e+01
4.8329674685869506e+00 3.0173032531413362e+01
4.8329674685869506e+00 3.0173032531413362e+01
ITEM: ATOMS id type x y z fx fy fz
1556 4 20.9916 21.5365 8.70627 -87.6406 -20.5556 63.5918
1555 3 19.8027 21.1308 24.1367 -13.6808 -5.96417 -34.3653
ITEM: TIMESTEP
60470
ITEM: NUMBER OF ATOMS
2
ITEM: BOX BOUNDS pp pp pp
4.8332520074336358e+00 3.0172747992566684e+01
4.8332520074336358e+00 3.0172747992566684e+01
4.8332520074336358e+00 3.0172747992566684e+01
ITEM: ATOMS id type x y z fx fy fz
1556 4 20.992 21.5355 8.71292 16.8236 50.5598 23.7615
1555 3 19.8026 21.1322 24.1362 -12.5169 -4.87418 -19.5193
ITEM: TIMESTEP
60480
ITEM: NUMBER OF ATOMS
2
ITEM: BOX BOUNDS pp pp pp
4.8335356338918700e+00 3.0172464366108450e+01
4.8335356338918700e+00 3.0172464366108450e+01
4.8335356338918700e+00 3.0172464366108450e+01
ITEM: ATOMS id type x y z fx fy fz
1556 4 20.9924 21.5371 8.72123 3.6342 -33.0334 -35.3812
1555 3 19.8016 21.1332 24.1342 -10.4042 -3.30572 2.02961
ITEM: TIMESTEP
60490
ITEM: NUMBER OF ATOMS
2
ITEM: BOX BOUNDS pp pp pp
4.8338224829296799e+00 3.0172177517070651e+01
4.8338224829296799e+00 3.0172177517070651e+01
4.8338224829296799e+00 3.0172177517070651e+01
ITEM: ATOMS id type x y z fx fy fz
1556 4 20.9936 21.5371 8.72646 7.14464 8.68753 -82.0203
1555 3 19.7999 21.134 24.1323 -8.78014 -1.72217 17.5723
ITEM: TIMESTEP
60500
ITEM: NUMBER OF ATOMS
2
ITEM: BOX BOUNDS pp pp pp
4.8341155281075263e+00 3.0171884471892810e+01
4.8341155281075263e+00 3.0171884471892810e+01
4.8341155281075263e+00 3.0171884471892810e+01
ITEM: ATOMS id type x y z fx fy fz
1556 4 20.9953 21.5374 8.7253 10.4755 5.44733 -56.4607
1555 3 19.7976 21.1346 24.1317 -8.62333 -0.441272 18.2994
ITEM: TIMESTEP
60510
ITEM: NUMBER OF ATOMS
2
ITEM: BOX BOUNDS pp pp pp
4.8344147889056899e+00 3.0171585211094644e+01
4.8344147889056899e+00 3.0171585211094644e+01
4.8344147889056899e+00 3.0171585211094644e+01
ITEM: ATOMS id type x y z fx fy fz
1556 4 20.9973 21.5379 8.71944 -27.3505 -23.8377 -8.72775
1555 3 19.7945 21.1352 24.1323 -9.57945 0.612586 7.14878
ITEM: TIMESTEP
60520
ITEM: NUMBER OF ATOMS
2
ITEM: BOX BOUNDS pp pp pp
4.8347176024509206e+00 3.0171282397549419e+01
4.8347176024509206e+00 3.0171282397549419e+01
4.8347176024509206e+00 3.0171282397549419e+01
ITEM: ATOMS id type x y z fx fy fz
1556 4 20.998 21.5376 8.71297 11.8253 62.5005 47.3563
1555 3 19.7908 21.1359 24.1334 -10.6247 1.6778 -6.83884
ITEM: TIMESTEP
60530
ITEM: NUMBER OF ATOMS
2
ITEM: BOX BOUNDS pp pp pp
4.8350202737108319e+00 3.0170979726289509e+01
4.8350202737108319e+00 3.0170979726289509e+01
4.8350202737108319e+00 3.0170979726289509e+01
ITEM: ATOMS id type x y z fx fy fz
1556 4 20.9978 21.541 8.70995 -91.4853 -0.818979 58.2819
1555 3 19.7864 21.1367 24.134 -10.5475 3.01219 -13.2833
ITEM: TIMESTEP
60540
ITEM: NUMBER OF ATOMS
2
ITEM: BOX BOUNDS pp pp pp
4.8353200211205429e+00 3.0170679978879797e+01
4.8353200211205429e+00 3.0170679978879797e+01
4.8353200211205429e+00 3.0170679978879797e+01
ITEM: ATOMS id type x y z fx fy fz
1556 4 20.9926 21.5454 8.7122 41.2088 19.3609 63.7482
1555 3 19.7811 21.1376 24.1337 -9.01832 4.58603 -8.9888
ITEM: TIMESTEP
60550
ITEM: NUMBER OF ATOMS
2
ITEM: BOX BOUNDS pp pp pp
4.8356163340189653e+00 3.0170383665981376e+01
4.8356163340189653e+00 3.0170383665981376e+01
4.8356163340189653e+00 3.0170383665981376e+01
ITEM: ATOMS id type x y z fx fy fz
1556 4 20.9886 21.5508 8.71826 -33.2728 -2.39554 -54.8388
1555 3 19.7753 21.139 24.1329 -6.34326 6.23261 3.95144
ITEM: TIMESTEP
60560
ITEM: NUMBER OF ATOMS
2
ITEM: BOX BOUNDS pp pp pp
4.8359104350688700e+00 3.0170089564931466e+01
4.8359104350688700e+00 3.0170089564931466e+01
4.8359104350688700e+00 3.0170089564931466e+01
ITEM: ATOMS id type x y z fx fy fz
1556 4 20.984 21.5559 8.72066 61.3724 -31.6632 -41.5104
1555 3 19.7689 21.1408 24.1323 -4.6525 7.2048 8.57953
ITEM: TIMESTEP
60570
ITEM: NUMBER OF ATOMS
2
ITEM: BOX BOUNDS pp pp pp
4.8362030512217231e+00 3.0169796948778615e+01
4.8362030512217231e+00 3.0169796948778615e+01
4.8362030512217231e+00 3.0169796948778615e+01
ITEM: ATOMS id type x y z fx fy fz
1556 4 20.9832 21.5585 8.71873 5.53354 -12.9621 -59.8645
1555 3 19.7622 21.143 24.1322 -4.13569 7.4137 3.75588
ITEM: TIMESTEP
60580
ITEM: NUMBER OF ATOMS
2
ITEM: BOX BOUNDS pp pp pp
4.8364939806347209e+00 3.0169506019365617e+01
4.8364939806347209e+00 3.0169506019365617e+01
4.8364939806347209e+00 3.0169506019365617e+01
ITEM: ATOMS id type x y z fx fy fz
1556 4 20.9835 21.5599 8.71237 17.3489 -0.362745 15.3981
1555 3 19.7552 21.1459 24.1324 -4.8819 6.82692 -10.3919
ITEM: TIMESTEP
60590
ITEM: NUMBER OF ATOMS
2
ITEM: BOX BOUNDS pp pp pp
4.8367818660019850e+00 3.0169218133998342e+01
4.8367818660019850e+00 3.0169218133998342e+01
4.8367818660019850e+00 3.0169218133998342e+01
ITEM: ATOMS id type x y z fx fy fz
1556 4 20.985 21.5613 8.7071 -22.5171 16.3844 49.0397
1555 3 19.7479 21.1492 24.1318 -5.35005 5.96294 -20.8937
ITEM: TIMESTEP
60600
ITEM: NUMBER OF ATOMS
2
ITEM: BOX BOUNDS pp pp pp
4.8370656610730034e+00 3.0168934338927318e+01
4.8370656610730034e+00 3.0168934338927318e+01
4.8370656610730034e+00 3.0168934338927318e+01
ITEM: ATOMS id type x y z fx fy fz
1556 4 20.9847 21.5641 8.70607 -12.1989 15.1212 61.2778
1555 3 19.7402 21.153 24.1298 -4.62061 5.15409 -20.4685
ITEM: TIMESTEP
60610
ITEM: NUMBER OF ATOMS
2
ITEM: BOX BOUNDS pp pp pp
4.8373459355989503e+00 3.0168654064401352e+01
4.8373459355989503e+00 3.0168654064401352e+01
4.8373459355989503e+00 3.0168654064401352e+01
ITEM: ATOMS id type x y z fx fy fz
1556 4 20.9834 21.5683 8.71029 -2.96826 18.4557 30.2191
1555 3 19.7321 21.1571 24.1264 -2.37129 4.6089 -6.99184
ITEM: TIMESTEP
60620
ITEM: NUMBER OF ATOMS
2
ITEM: BOX BOUNDS pp pp pp
4.8376251218833417e+00 3.0168374878116964e+01
4.8376251218833417e+00 3.0168374878116964e+01
4.8376251218833417e+00 3.0168374878116964e+01
ITEM: ATOMS id type x y z fx fy fz
1556 4 20.9816 21.5739 8.71672 -3.31275 -4.46883 -34.0119
1555 3 19.7239 21.1616 24.1225 0.487125 4.20423 11.8065
ITEM: TIMESTEP
60630
ITEM: NUMBER OF ATOMS
2
ITEM: BOX BOUNDS pp pp pp
4.8379061341658929e+00 3.0168093865834415e+01
4.8379061341658929e+00 3.0168093865834415e+01
4.8379061341658929e+00 3.0168093865834415e+01
ITEM: ATOMS id type x y z fx fy fz
1556 4 20.9802 21.5789 8.72048 37.6656 -24.9866 -49.0878
1555 3 19.7157 21.1664 24.1194 2.46631 3.62493 23.7888
ITEM: TIMESTEP
60640
ITEM: NUMBER OF ATOMS
2
ITEM: BOX BOUNDS pp pp pp
4.8381905656903932e+00 3.0167809434309909e+01
4.8381905656903932e+00 3.0167809434309909e+01
4.8381905656903932e+00 3.0167809434309909e+01
ITEM: ATOMS id type x y z fx fy fz
1556 4 20.9815 21.5821 8.71935 1.5006 0.832494 -74.4387
1555 3 19.7077 21.1714 24.118 2.85493 2.75902 23.3092
ITEM: TIMESTEP
60650
ITEM: NUMBER OF ATOMS
2
ITEM: BOX BOUNDS pp pp pp
4.8384779605406720e+00 3.0167522039459637e+01
4.8384779605406720e+00 3.0167522039459637e+01
4.8384779605406720e+00 3.0167522039459637e+01
ITEM: ATOMS id type x y z fx fy fz
1556 4 20.9835 21.5849 8.71245 14.3487 -4.87248 6.04886
1555 3 19.6999 21.1767 24.1182 1.34071 1.58385 8.527
ITEM: TIMESTEP
60660
ITEM: NUMBER OF ATOMS
2
ITEM: BOX BOUNDS pp pp pp
4.8387661083821865e+00 3.0167233891618132e+01
4.8387661083821865e+00 3.0167233891618132e+01
4.8387661083821865e+00 3.0167233891618132e+01
ITEM: ATOMS id type x y z fx fy fz
1556 4 20.9861 21.5877 8.70545 -47.0567 21.421 36.6276
1555 3 19.6921 21.182 24.119 -0.437083 0.608678 -7.3122
ITEM: TIMESTEP
60670
ITEM: NUMBER OF ATOMS
2
ITEM: BOX BOUNDS pp pp pp
4.8390531199446176e+00 3.0166946880055704e+01
4.8390531199446176e+00 3.0166946880055704e+01
4.8390531199446176e+00 3.0166946880055704e+01
ITEM: ATOMS id type x y z fx fy fz
1556 4 20.9857 21.592 8.70183 14.0564 27.62 71.909
1555 3 19.6844 21.1874 24.1193 -1.42483 0.100864 -15.762
ITEM: TIMESTEP
60680
ITEM: NUMBER OF ATOMS
2
ITEM: BOX BOUNDS pp pp pp
4.8393391820277003e+00 3.0166660817972627e+01
4.8393391820277003e+00 3.0166660817972627e+01
4.8393391820277003e+00 3.0166660817972627e+01
ITEM: ATOMS id type x y z fx fy fz
1556 4 20.9853 21.5988 8.70372 -37.0584 8.52828 2.79824
1555 3 19.6765 21.1928 24.1185 -0.797453 0.230851 -10.6389
ITEM: TIMESTEP
60690
ITEM: NUMBER OF ATOMS
2
ITEM: BOX BOUNDS pp pp pp
4.8396269901823299e+00 3.0166373009818003e+01
4.8396269901823299e+00 3.0166373009818003e+01
4.8396269901823299e+00 3.0166373009818003e+01
ITEM: ATOMS id type x y z fx fy fz
1556 4 20.9831 21.6061 8.70682 64.1554 -32.6524 -6.3682
1555 3 19.6686 21.1983 24.117 0.201765 0.534257 -1.5649
ITEM: TIMESTEP
60700
ITEM: NUMBER OF ATOMS
2
ITEM: BOX BOUNDS pp pp pp
4.8399198299903610e+00 3.0166080170009970e+01
4.8399198299903610e+00 3.0166080170009970e+01
4.8399198299903610e+00 3.0166080170009970e+01
ITEM: ATOMS id type x y z fx fy fz
1556 4 20.9847 21.6112 8.7089 2.06943 -16.6458 -60.0496
1555 3 19.6607 21.2038 24.1154 1.05905 0.746548 6.90864
ITEM: TIMESTEP
60710
ITEM: NUMBER OF ATOMS
2
ITEM: BOX BOUNDS pp pp pp
4.8402202004154695e+00 3.0165779799584854e+01
4.8402202004154695e+00 3.0165779799584854e+01
4.8402202004154695e+00 3.0165779799584854e+01
ITEM: ATOMS id type x y z fx fy fz
1556 4 20.9879 21.6145 8.7066 49.5631 -24.7007 -22.8248
1555 3 19.6529 21.2093 24.1142 0.749652 0.468753 6.53917
ITEM: TIMESTEP
60720
ITEM: NUMBER OF ATOMS
2
ITEM: BOX BOUNDS pp pp pp
4.8405286732323489e+00 3.0165471326767971e+01
4.8405286732323489e+00 3.0165471326767971e+01
4.8405286732323489e+00 3.0165471326767971e+01
ITEM: ATOMS id type x y z fx fy fz
1556 4 20.9945 21.6156 8.70163 0.288283 -19.1082 -8.79907
1555 3 19.6451 21.2148 24.1135 -0.102924 -0.190601 1.13646
ITEM: TIMESTEP
60730
ITEM: NUMBER OF ATOMS
2
ITEM: BOX BOUNDS pp pp pp
4.8408442243298921e+00 3.0165155775670431e+01
4.8408442243298921e+00 3.0165155775670431e+01
4.8408442243298921e+00 3.0165155775670431e+01
ITEM: ATOMS id type x y z fx fy fz
1556 4 21.0016 21.6152 8.69613 -22.6092 15.3729 50.2514
1555 3 19.6373 21.2204 24.1128 -0.809247 -1.07064 -4.95491
ITEM: TIMESTEP
60740
ITEM: NUMBER OF ATOMS
2
ITEM: BOX BOUNDS pp pp pp
4.8411653751242536e+00 3.0164834624876072e+01
4.8411653751242536e+00 3.0164834624876072e+01
4.8411653751242536e+00 3.0164834624876072e+01
ITEM: ATOMS id type x y z fx fy fz
1556 4 21.007 21.6159 8.69458 -8.05792 21.7126 75.7518
1555 3 19.6295 21.2258 24.1118 -0.0255062 -1.78806 -2.63481
ITEM: TIMESTEP
60750
ITEM: NUMBER OF ATOMS
2
ITEM: BOX BOUNDS pp pp pp
4.8414920965844761e+00 3.0164507903415846e+01
4.8414920965844761e+00 3.0164507903415846e+01
4.8414920965844761e+00 3.0164507903415846e+01
ITEM: ATOMS id type x y z fx fy fz
1556 4 21.0113 21.6186 8.69902 -41.1903 21.9064 0.112854
1555 3 19.6216 21.2312 24.1107 2.85077 -2.16215 11.8992
ITEM: TIMESTEP
60760
ITEM: NUMBER OF ATOMS
2
ITEM: BOX BOUNDS pp pp pp
4.8418268847872792e+00 3.0164173115213043e+01
4.8418268847872792e+00 3.0164173115213043e+01
4.8418268847872792e+00 3.0164173115213043e+01
ITEM: ATOMS id type x y z fx fy fz
1556 4 21.0128 21.6223 8.70434 26.602 -57.6072 -9.22278
1555 3 19.614 21.2363 24.1105 6.01895 -2.63456 26.0275
ITEM: TIMESTEP
60770
ITEM: NUMBER OF ATOMS
2
ITEM: BOX BOUNDS pp pp pp
4.8421728387107006e+00 3.0163827161289628e+01
4.8421728387107006e+00 3.0163827161289628e+01
4.8421728387107006e+00 3.0163827161289628e+01
ITEM: ATOMS id type x y z fx fy fz
1556 4 21.0156 21.6226 8.70802 8.13405 19.9261 -91.1649
1555 3 19.6068 21.2413 24.1121 8.47973 -3.41431 33.3877
ITEM: TIMESTEP
60780
ITEM: NUMBER OF ATOMS
2
ITEM: BOX BOUNDS pp pp pp
4.8425317658810645e+00 3.0163468234119254e+01
4.8425317658810645e+00 3.0163468234119254e+01
4.8425317658810645e+00 3.0163468234119254e+01
ITEM: ATOMS id type x y z fx fy fz
1556 4 21.0197 21.623 8.70545 30.2466 -68.3174 -26.6601
1555 3 19.6002 21.246 24.116 8.67867 -4.78709 24.2297
ITEM: TIMESTEP
60790
ITEM: NUMBER OF ATOMS
2
ITEM: BOX BOUNDS pp pp pp
4.8429027355821521e+00 3.0163097264418180e+01
4.8429027355821521e+00 3.0163097264418180e+01
4.8429027355821521e+00 3.0163097264418180e+01
ITEM: ATOMS id type x y z fx fy fz
1556 4 21.0253 21.6189 8.69983 -36.7525 -16.3434 -5.73941
1555 3 19.5942 21.2504 24.1216 7.46221 -6.4294 5.64123
ITEM: TIMESTEP
60800
ITEM: NUMBER OF ATOMS
2
ITEM: BOX BOUNDS pp pp pp
4.8432825401686141e+00 3.0162717459831732e+01
4.8432825401686141e+00 3.0162717459831732e+01
4.8432825401686141e+00 3.0162717459831732e+01
ITEM: ATOMS id type x y z fx fy fz
1556 4 21.0291 21.613 8.69425 5.53831 24.5279 70.6469
1555 3 19.5888 21.2543 24.1277 5.87483 -7.94668 -14.302
ITEM: TIMESTEP
60810
ITEM: NUMBER OF ATOMS
2
ITEM: BOX BOUNDS pp pp pp
4.8436671482342071e+00 3.0162332851766138e+01
4.8436671482342071e+00 3.0162332851766138e+01
4.8436671482342071e+00 3.0162332851766138e+01