ITEM: TIMESTEP
60000
ITEM: NUMBER OF ATOMS
2
ITEM: BOX BOUNDS pp pp pp
4.8896507075564664e+00 3.0116349292443616e+01
4.8896507075564664e+00 3.0116349292443616e+01
4.8896507075564664e+00 3.0116349292443616e+01
ITEM: ATOMS id type x y z fx fy fz
1556 4 22.3173 23.9051 8.54397 -74.7179 77.7803 61.6796
1555 3 18.3788 16.9154 27.7967 15.7093 5.99229 7.68979
ITEM: TIMESTEP
60010
ITEM: NUMBER OF ATOMS
2
ITEM: BOX BOUNDS pp pp pp
4.8899286882120432e+00 3.0116071311788026e+01
4.8899286882120432e+00 3.0116071311788026e+01
4.8899286882120432e+00 3.0116071311788026e+01
ITEM: ATOMS id type x y z fx fy fz
1556 4 22.3173 23.8996 8.55356 87.1494 190.849 53.1506
1555 3 18.3837 16.9235 27.7929 12.1658 -0.742797 2.83142
ITEM: TIMESTEP
60020
ITEM: NUMBER OF ATOMS
2
ITEM: BOX BOUNDS pp pp pp
4.8901972106013627e+00 3.0115802789398696e+01
4.8901972106013627e+00 3.0115802789398696e+01
4.8901972106013627e+00 3.0115802789398696e+01
ITEM: ATOMS id type x y z fx fy fz
1556 4 22.3208 23.9098 8.5676 -91.4197 121.72 23.9802
1555 3 18.3895 16.9316 27.7894 19.312 12.4019 15.1435
ITEM: TIMESTEP
60030
ITEM: NUMBER OF ATOMS
2
ITEM: BOX BOUNDS pp pp pp
4.8904623175891846e+00 3.0115537682410878e+01
4.8904623175891846e+00 3.0115537682410878e+01
4.8904623175891846e+00 3.0115537682410878e+01
ITEM: ATOMS id type x y z fx fy fz
1556 4 22.3196 23.9301 8.58378 5.98473 -18.4262 -28.5641
1555 3 18.3968 16.9406 27.7871 29.205 31.7033 32.8093
ITEM: TIMESTEP
60040
ITEM: NUMBER OF ATOMS
2
ITEM: BOX BOUNDS pp pp pp
4.8907317167588218e+00 3.0115268283241239e+01
4.8907317167588218e+00 3.0115268283241239e+01
4.8907317167588218e+00 3.0115268283241239e+01
ITEM: ATOMS id type x y z fx fy fz
1556 4 22.3172 23.9492 8.59716 -53.1187 -91.9281 -91.9122
1555 3 18.4061 16.9519 27.7871 32.9076 41.4256 42.1338
ITEM: TIMESTEP
60050
ITEM: NUMBER OF ATOMS
2
ITEM: BOX BOUNDS pp pp pp
4.8910091435934504e+00 3.0114990856406614e+01
4.8910091435934504e+00 3.0114990856406614e+01
4.8910091435934504e+00 3.0114990856406614e+01
ITEM: ATOMS id type x y z fx fy fz
1556 4 22.3105 23.9603 8.60301 -74.1589 -118.913 -91.9358
1555 3 18.4178 16.9661 27.7901 22.8656 27.9313 31.16
ITEM: TIMESTEP
60060
ITEM: NUMBER OF ATOMS
2
ITEM: BOX BOUNDS pp pp pp
4.8912913554871995e+00 3.0114708644512863e+01
4.8912913554871995e+00 3.0114708644512863e+01
4.8912913554871995e+00 3.0114708644512863e+01
ITEM: ATOMS id type x y z fx fy fz
1556 4 22.2985 23.9614 8.60106 25.1903 -69.1187 -38.0019
1555 3 18.4311 16.9822 27.7951 -0.824005 -9.18421 -0.648778
ITEM: TIMESTEP
60070
ITEM: NUMBER OF ATOMS
2
ITEM: BOX BOUNDS pp pp pp
4.8915686811450509e+00 3.0114431318855004e+01
4.8915686811450509e+00 3.0114431318855004e+01
4.8915686811450509e+00 3.0114431318855004e+01
ITEM: ATOMS id type x y z fx fy fz
1556 4 22.2867 23.9568 8.59581 -53.7307 46.7991 23.8844
1555 3 18.4443 16.9975 27.8001 -28.5543 -53.5283 -39.2071
ITEM: TIMESTEP
60080
ITEM: NUMBER OF ATOMS
2
ITEM: BOX BOUNDS pp pp pp
4.8918287601641204e+00 3.0114171239835947e+01
4.8918287601641204e+00 3.0114171239835947e+01
4.8918287601641204e+00 3.0114171239835947e+01
ITEM: ATOMS id type x y z fx fy fz
1556 4 22.273 23.9561 8.59239 110.581 141.06 59.3885
1555 3 18.4555 17.0091 27.8024 -49.0458 -85.7823 -67.5719
ITEM: TIMESTEP
60090
ITEM: NUMBER OF ATOMS
2
ITEM: BOX BOUNDS pp pp pp
4.8920616992679893e+00 3.0113938300732073e+01
4.8920616992679893e+00 3.0113938300732073e+01
4.8920616992679893e+00 3.0113938300732073e+01
ITEM: ATOMS id type x y z fx fy fz
1556 4 22.2649 23.9672 8.59435 -62.0102 126.839 105.699
1555 3 18.4632 17.0146 27.7999 -51.0341 -86.2423 -68.1821
ITEM: TIMESTEP
60100
ITEM: NUMBER OF ATOMS
2
ITEM: BOX BOUNDS pp pp pp
4.8922654981266920e+00 3.0113734501873370e+01
4.8922654981266920e+00 3.0113734501873370e+01
4.8922654981266920e+00 3.0113734501873370e+01
ITEM: ATOMS id type x y z fx fy fz
1556 4 22.2561 23.9886 8.60417 124.918 -0.312155 -11.0347
1555 3 18.4673 17.014 27.7926 -35.8135 -57.1089 -42.7513
ITEM: TIMESTEP
60110
ITEM: NUMBER OF ATOMS
2
ITEM: BOX BOUNDS pp pp pp
4.8924464954009625e+00 3.0113553504599103e+01
4.8924464954009625e+00 3.0113553504599103e+01
4.8924464954009625e+00 3.0113553504599103e+01
ITEM: ATOMS id type x y z fx fy fz
1556 4 22.2527 24.01 8.61411 -116.256 -131.706 -44.6428
1555 3 18.4689 17.0094 27.7823 -13.4506 -15.7863 -6.57703
ITEM: TIMESTEP
60120
ITEM: NUMBER OF ATOMS
2
ITEM: BOX BOUNDS pp pp pp
4.8926149719011072e+00 3.0113385028098961e+01
4.8926149719011072e+00 3.0113385028098961e+01
4.8926149719011072e+00 3.0113385028098961e+01
ITEM: ATOMS id type x y z fx fy fz
1556 4 22.2446 24.021 8.61982 59.9862 -138.108 -59.1799
1555 3 18.4694 17.0035 27.7714 1.8774 12.3006 17.9952
ITEM: TIMESTEP
60130
ITEM: NUMBER OF ATOMS
2
ITEM: BOX BOUNDS pp pp pp
4.8927797707868947e+00 3.0113220229213177e+01
4.8927797707868947e+00 3.0113220229213177e+01
4.8927797707868947e+00 3.0113220229213177e+01
ITEM: ATOMS id type x y z fx fy fz
1556 4 22.2376 24.0208 8.62085 -94.6401 -41.4296 -36.7931
1555 3 18.4701 16.9984 27.7617 8.59636 24.3879 28.4273
ITEM: TIMESTEP
60140
ITEM: NUMBER OF ATOMS
2
ITEM: BOX BOUNDS pp pp pp
4.8929458525160303e+00 3.0113054147484029e+01
4.8929458525160303e+00 3.0113054147484029e+01
4.8929458525160303e+00 3.0113054147484029e+01
ITEM: ATOMS id type x y z fx fy fz
1556 4 22.2254 24.0171 8.61863 38.0366 50.2618 -12.572
1555 3 18.4713 16.9949 27.7541 8.50498 23.8879 27.6473
ITEM: TIMESTEP
60150
ITEM: NUMBER OF ATOMS
2
ITEM: BOX BOUNDS pp pp pp
4.8931140057003937e+00 3.0112885994299667e+01
4.8931140057003937e+00 3.0112885994299667e+01
4.8931140057003937e+00 3.0112885994299667e+01
ITEM: ATOMS id type x y z fx fy fz
1556 4 22.2143 24.0176 8.61592 -46.8105 101.827 65.5245
1555 3 18.4731 16.9933 27.7484 8.69049 23.8987 27.0781
ITEM: TIMESTEP
60160
ITEM: NUMBER OF ATOMS
2
ITEM: BOX BOUNDS pp pp pp
4.8932839440073650e+00 3.0112716055992692e+01
4.8932839440073650e+00 3.0112716055992692e+01
4.8932839440073650e+00 3.0112716055992692e+01
ITEM: ATOMS id type x y z fx fy fz
1556 4 22.2005 24.0267 8.61787 3.17857 114.451 22.4831
1555 3 18.4756 16.9934 27.7448 12.5943 30.9801 32.5069
ITEM: TIMESTEP
60170
ITEM: NUMBER OF ATOMS
2
ITEM: BOX BOUNDS pp pp pp
4.8934569090444118e+00 3.0112543090955640e+01
4.8934569090444118e+00 3.0112543090955640e+01
4.8934569090444118e+00 3.0112543090955640e+01
ITEM: ATOMS id type x y z fx fy fz
1556 4 22.1862 24.0453 8.622 3.40622 47.1991 -1.08183
1555 3 18.479 16.9958 27.7435 19.4799 43.9255 42.8916
ITEM: TIMESTEP
60180
ITEM: NUMBER OF ATOMS
2
ITEM: BOX BOUNDS pp pp pp
4.8936354702663767e+00 3.0112364529733679e+01
4.8936354702663767e+00 3.0112364529733679e+01
4.8936354702663767e+00 3.0112364529733679e+01
ITEM: ATOMS id type x y z fx fy fz
1556 4 22.1718 24.0679 8.62637 -72.2551 -70.8627 -4.11927
1555 3 18.4839 17.0014 27.7454 24.5391 53.8085 50.4737
ITEM: TIMESTEP
60190
ITEM: NUMBER OF ATOMS
2
ITEM: BOX BOUNDS pp pp pp
4.8938204619349044e+00 3.0112179538065149e+01
4.8938204619349044e+00 3.0112179538065149e+01
4.8938204619349044e+00 3.0112179538065149e+01
ITEM: ATOMS id type x y z fx fy fz
1556 4 22.1528 24.0847 8.62949 34.8081 -145.319 -101.631
1555 3 18.4904 17.0108 27.7508 20.3095 46.3317 42.9532
ITEM: TIMESTEP
60200
ITEM: NUMBER OF ATOMS
2
ITEM: BOX BOUNDS pp pp pp
4.8940075928897695e+00 3.0111992407110293e+01
4.8940075928897695e+00 3.0111992407110293e+01
4.8940075928897695e+00 3.0111992407110293e+01
ITEM: ATOMS id type x y z fx fy fz
1556 4 22.1339 24.0898 8.62522 -94.2957 -119.338 -39.093
1555 3 18.4984 17.0234 27.7592 2.9293 13.5066 13.5331
ITEM: TIMESTEP
60210
ITEM: NUMBER OF ATOMS
2
ITEM: BOX BOUNDS pp pp pp
4.8941871573274067e+00 3.0111812842672649e+01
4.8941871573274067e+00 3.0111812842672649e+01
4.8941871573274067e+00 3.0111812842672649e+01
ITEM: ATOMS id type x y z fx fy fz
1556 4 22.1109 24.0851 8.61776 93.1608 4.7437 59.8444
1555 3 18.5066 17.0369 27.7686 -22.8177 -35.9904 -30.0811
ITEM: TIMESTEP
60220
ITEM: NUMBER OF ATOMS
2
ITEM: BOX BOUNDS pp pp pp
4.8943473729507030e+00 3.0111652627049352e+01
4.8943473729507030e+00 3.0111652627049352e+01
4.8943473729507030e+00 3.0111652627049352e+01
ITEM: ATOMS id type x y z fx fy fz
1556 4 22.092 24.0814 8.61455 -23.5674 158.209 58.7204
1555 3 18.5131 17.0479 27.7758 -42.0025 -73.7036 -62.9994
ITEM: TIMESTEP
60230
ITEM: NUMBER OF ATOMS
2
ITEM: BOX BOUNDS pp pp pp
4.8944802650848587e+00 3.0111519734915195e+01
4.8944802650848587e+00 3.0111519734915195e+01
4.8944802650848587e+00 3.0111519734915195e+01
ITEM: ATOMS id type x y z fx fy fz
1556 4 22.0746 24.0896 8.61748 121.515 98.3501 128.596
1555 3 18.5167 17.0537 27.7786 -45.7763 -82.6175 -70.0921
ITEM: TIMESTEP
60240
ITEM: NUMBER OF ATOMS
2
ITEM: BOX BOUNDS pp pp pp
4.8945856959045511e+00 3.0111414304095497e+01
4.8945856959045511e+00 3.0111414304095497e+01
4.8945856959045511e+00 3.0111414304095497e+01
ITEM: ATOMS id type x y z fx fy fz
1556 4 22.0644 24.1067 8.63023 -37.2586 28.5481 44.9439
1555 3 18.517 17.0537 27.7766 -32.2656 -58.3614 -47.6733
ITEM: TIMESTEP
60250
ITEM: NUMBER OF ATOMS
2
ITEM: BOX BOUNDS pp pp pp
4.8946709691018047e+00 3.0111329030898247e+01
4.8946709691018047e+00 3.0111329030898247e+01
4.8946709691018047e+00 3.0111329030898247e+01
ITEM: ATOMS id type x y z fx fy fz
1556 4 22.0538 24.1256 8.64709 60.7557 -96.414 -27.3418
1555 3 18.515 17.0495 27.7711 -11.8461 -20.525 -13.0492
ITEM: TIMESTEP
60260
ITEM: NUMBER OF ATOMS
2
ITEM: BOX BOUNDS pp pp pp
4.8947459320550628e+00 3.0111254067944984e+01
4.8947459320550628e+00 3.0111254067944984e+01
4.8947459320550628e+00 3.0111254067944984e+01
ITEM: ATOMS id type x y z fx fy fz
1556 4 22.0462 24.1365 8.6619 -45.2779 -152.199 -52.0656
1555 3 18.5122 17.0438 27.7647 5.51898 11.7442 16.8644
ITEM: TIMESTEP
60270
ITEM: NUMBER OF ATOMS
2
ITEM: BOX BOUNDS pp pp pp
4.8948185803496393e+00 3.0111181419650407e+01
4.8948185803496393e+00 3.0111181419650407e+01
4.8948185803496393e+00 3.0111181419650407e+01
ITEM: ATOMS id type x y z fx fy fz
1556 4 22.0362 24.1348 8.67218 -20.5031 -117.133 -57.566
1555 3 18.5097 17.0388 27.7594 12.5445 23.9766 29.3732
ITEM: TIMESTEP
60280
ITEM: NUMBER OF ATOMS
2
ITEM: BOX BOUNDS pp pp pp
4.8948920858294276e+00 3.0111107914170617e+01
4.8948920858294276e+00 3.0111107914170617e+01
4.8948920858294276e+00 3.0111107914170617e+01
ITEM: ATOMS id type x y z fx fy fz
1556 4 22.0244 24.1232 8.67821 26.5983 -21.4936 10.7257
1555 3 18.5081 17.0354 27.7561 10.0322 17.6622 25.6334
ITEM: TIMESTEP
60290
ITEM: NUMBER OF ATOMS
2
ITEM: BOX BOUNDS pp pp pp
4.8949642591687734e+00 3.0111035740831269e+01
4.8949642591687734e+00 3.0111035740831269e+01
4.8949642591687734e+00 3.0111035740831269e+01
ITEM: ATOMS id type x y z fx fy fz
1556 4 22.0137 24.1105 8.68433 -18.6757 146.057 24.9459
1555 3 18.5071 17.0333 27.7547 5.36007 7.47497 18.278
ITEM: TIMESTEP
60300
ITEM: NUMBER OF ATOMS
2
ITEM: BOX BOUNDS pp pp pp
4.8950305256871189e+00 3.0110969474312924e+01
4.8950305256871189e+00 3.0110969474312924e+01
4.8950305256871189e+00 3.0110969474312924e+01
ITEM: ATOMS id type x y z fx fy fz
1556 4 22.0038 24.1086 8.69412 78.1934 146.711 132.381
1555 3 18.5066 17.0318 27.7546 6.66135 9.73565 21.4789
ITEM: TIMESTEP
60310
ITEM: NUMBER OF ATOMS
2
ITEM: BOX BOUNDS pp pp pp
4.8950896941982158e+00 3.0110910305801823e+01
4.8950896941982158e+00 3.0110910305801823e+01
4.8950896941982158e+00 3.0110910305801823e+01
ITEM: ATOMS id type x y z fx fy fz
1556 4 21.9976 24.1197 8.71255 -49.0726 82.5537 -25.7013
1555 3 18.5066 17.0312 27.7563 17.4879 31.743 41.6021
ITEM: TIMESTEP
60320
ITEM: NUMBER OF ATOMS
2
ITEM: BOX BOUNDS pp pp pp
4.8951467488144900e+00 3.0110853251185546e+01
4.8951467488144900e+00 3.0110853251185546e+01
4.8951467488144900e+00 3.0110853251185546e+01
ITEM: ATOMS id type x y z fx fy fz
1556 4 21.9894 24.1366 8.73019 26.9083 -137.307 -61.2862
1555 3 18.508 17.0328 27.761 27.2775 52.523 60.2576
ITEM: TIMESTEP
60330
ITEM: NUMBER OF ATOMS
2
ITEM: BOX BOUNDS pp pp pp
4.8952068787585290e+00 3.0110793121241500e+01
4.8952068787585290e+00 3.0110793121241500e+01
4.8952068787585290e+00 3.0110793121241500e+01
ITEM: ATOMS id type x y z fx fy fz
1556 4 21.981 24.1433 8.74224 -118.277 -169.409 -110.888
1555 3 18.5112 17.0382 27.7699 24.9766 49.5706 57.7712
ITEM: TIMESTEP
60340
ITEM: NUMBER OF ATOMS
2
ITEM: BOX BOUNDS pp pp pp
4.8952694788164361e+00 3.0110730521183594e+01
4.8952694788164361e+00 3.0110730521183594e+01
4.8952694788164361e+00 3.0110730521183594e+01
ITEM: ATOMS id type x y z fx fy fz
1556 4 21.9655 24.1354 8.74519 48.0907 -100.553 -73.2537
1555 3 18.5161 17.0469 27.7828 5.79533 12.9093 25.3424
ITEM: TIMESTEP
60350
ITEM: NUMBER OF ATOMS
2
ITEM: BOX BOUNDS pp pp pp
4.8953267204120845e+00 3.0110673279587949e+01
4.8953267204120845e+00 3.0110673279587949e+01
4.8953267204120845e+00 3.0110673279587949e+01
ITEM: ATOMS id type x y z fx fy fz
1556 4 21.9516 24.1195 8.74189 -33.45 68.9871 14.2441
1555 3 18.5214 17.0565 27.7976 -20.9079 -39.0761 -21.0089
ITEM: TIMESTEP
60360
ITEM: NUMBER OF ATOMS
2
ITEM: BOX BOUNDS pp pp pp
4.8953668022048902e+00 3.0110633197795146e+01
4.8953668022048902e+00 3.0110633197795146e+01
4.8953668022048902e+00 3.0110633197795146e+01
ITEM: ATOMS id type x y z fx fy fz
1556 4 21.9371 24.1085 8.74006 107.562 120.745 113.386
1555 3 18.5253 17.0633 27.8108 -41.7938 -79.9993 -57.9537
ITEM: TIMESTEP
60370
ITEM: NUMBER OF ATOMS
2
ITEM: BOX BOUNDS pp pp pp
4.8953799069228889e+00 3.0110620093077145e+01
4.8953799069228889e+00 3.0110620093077145e+01
4.8953799069228889e+00 3.0110620093077145e+01
ITEM: ATOMS id type x y z fx fy fz
1556 4 21.9295 24.1085 8.74678 1.72818 169.242 55.4771
1555 3 18.5262 17.0645 27.8201 -45.7488 -87.9315 -65.9182
ITEM: TIMESTEP
60380
ITEM: NUMBER OF ATOMS
2
ITEM: BOX BOUNDS pp pp pp
4.8953635223478855e+00 3.0110636477652143e+01
4.8953635223478855e+00 3.0110636477652143e+01
4.8953635223478855e+00 3.0110636477652143e+01
ITEM: ATOMS id type x y z fx fy fz
1556 4 21.9241 24.122 8.75888 69.5842 38.8177 22.4881
1555 3 18.5238 17.0595 27.8248 -33.2253 -64.0539 -45.7329
ITEM: TIMESTEP
60390
ITEM: NUMBER OF ATOMS
2
ITEM: BOX BOUNDS pp pp pp
4.8953222368221230e+00 3.0110677763177915e+01
4.8953222368221230e+00 3.0110677763177915e+01
4.8953222368221230e+00 3.0110677763177915e+01
ITEM: ATOMS id type x y z fx fy fz
1556 4 21.923 24.1388 8.77274 -42.5648 -116.169 -42.0543
1555 3 18.5191 17.05 27.8262 -12.208 -24.0506 -11.3781
ITEM: TIMESTEP
60400
ITEM: NUMBER OF ATOMS
2
ITEM: BOX BOUNDS pp pp pp
4.8952633766384590e+00 3.0110736623361571e+01
4.8952633766384590e+00 3.0110736623361571e+01
4.8952633766384590e+00 3.0110736623361571e+01
ITEM: ATOMS id type x y z fx fy fz
1556 4 21.9199 24.1462 8.78206 -4.84574 -166.323 -168.865
1555 3 18.5135 17.0386 27.8268 3.7561 4.88092 13.2014
ITEM: TIMESTEP
60410
ITEM: NUMBER OF ATOMS
2
ITEM: BOX BOUNDS pp pp pp
4.8951922376178860e+00 3.0110807762382137e+01
4.8951922376178860e+00 3.0110807762382137e+01
4.8951922376178860e+00 3.0110807762382137e+01
ITEM: ATOMS id type x y z fx fy fz
1556 4 21.9145 24.1399 8.7792 -39.2583 -104.527 -26.1286
1555 3 18.5081 17.0273 27.8282 6.97167 7.28714 14.5597
ITEM: TIMESTEP
60420
ITEM: NUMBER OF ATOMS
2
ITEM: BOX BOUNDS pp pp pp
4.8951096081212242e+00 3.0110890391878812e+01
4.8951096081212242e+00 3.0110890391878812e+01
4.8951096081212242e+00 3.0110890391878812e+01
ITEM: ATOMS id type x y z fx fy fz
1556 4 21.9074 24.1256 8.77262 20.9344 101.405 7.18959
1555 3 18.5031 17.0165 27.8306 3.44901 -4.05807 3.92286
ITEM: TIMESTEP
60430
ITEM: NUMBER OF ATOMS
2
ITEM: BOX BOUNDS pp pp pp
4.8950131519453404e+00 3.0110986848054687e+01
4.8950131519453404e+00 3.0110986848054687e+01
4.8950131519453404e+00 3.0110986848054687e+01
ITEM: ATOMS id type x y z fx fy fz
1556 4 21.9019 24.1187 8.76764 55.4237 159.483 108.013
1555 3 18.4984 17.0055 27.8334 4.18073 -6.0744 1.37893
ITEM: TIMESTEP
60440
ITEM: NUMBER OF ATOMS
2
ITEM: BOX BOUNDS pp pp pp
4.8949025198601621e+00 3.0111097480139868e+01
4.8949025198601621e+00 3.0111097480139868e+01
4.8949025198601621e+00 3.0111097480139868e+01
ITEM: ATOMS id type x y z fx fy fz
1556 4 21.8997 24.1257 8.77016 -28.9405 151.782 40.5317
1555 3 18.4941 16.9942 27.8363 15.1507 14.0188 17.9561
ITEM: TIMESTEP
60450
ITEM: NUMBER OF ATOMS
2
ITEM: BOX BOUNDS pp pp pp
4.8947837346911136e+00 3.0111216265308922e+01
4.8947837346911136e+00 3.0111216265308922e+01
4.8947837346911136e+00 3.0111216265308922e+01
ITEM: ATOMS id type x y z fx fy fz
1556 4 21.897 24.1443 8.77679 56.4648 -23.1603 -13.1059
1555 3 18.4909 16.9839 27.8407 31.3662 46.3388 44.954
ITEM: TIMESTEP
60460
ITEM: NUMBER OF ATOMS
2
ITEM: BOX BOUNDS pp pp pp
4.8946661564128231e+00 3.0111333843587214e+01
4.8946661564128231e+00 3.0111333843587214e+01
4.8946661564128231e+00 3.0111333843587214e+01
ITEM: ATOMS id type x y z fx fy fz
1556 4 21.8965 24.1622 8.78163 -114.346 -80.0861 -124.182
1555 3 18.49 16.977 27.8483 42.7796 69.9837 64.352
ITEM: TIMESTEP
60470
ITEM: NUMBER OF ATOMS
2
ITEM: BOX BOUNDS pp pp pp
4.8945557363999139e+00 3.0111444263600124e+01
4.8945557363999139e+00 3.0111444263600124e+01
4.8945557363999139e+00 3.0111444263600124e+01
ITEM: ATOMS id type x y z fx fy fz
1556 4 21.8893 24.1729 8.77653 27.9911 -141.346 -124.817
1555 3 18.4921 16.975 27.8604 39.2134 63.4866 57.8906
ITEM: TIMESTEP
60480
ITEM: NUMBER OF ATOMS
2
ITEM: BOX BOUNDS pp pp pp
4.8944501583367774e+00 3.0111549841663262e+01
4.8944501583367774e+00 3.0111549841663262e+01
4.8944501583367774e+00 3.0111549841663262e+01
ITEM: ATOMS id type x y z fx fy fz
1556 4 21.8817 24.1724 8.76097 -67.203 -62.0288 -53.8132
1555 3 18.4969 16.9774 27.8766 20.7686 26.3769 25.5201
ITEM: TIMESTEP
60490
ITEM: NUMBER OF ATOMS
2
ITEM: BOX BOUNDS pp pp pp
4.8943391837646324e+00 3.0111660816235403e+01
4.8943391837646324e+00 3.0111660816235403e+01
4.8943391837646324e+00 3.0111660816235403e+01
ITEM: ATOMS id type x y z fx fy fz
1556 4 21.8707 24.1666 8.74075 47.3331 59.7851 35.0365
1555 3 18.5032 16.9816 27.8946 -5.24496 -26.2098 -19.6081
ITEM: TIMESTEP
60500
ITEM: NUMBER OF ATOMS
2
ITEM: BOX BOUNDS pp pp pp
4.8942086529452133e+00 3.0111791347054833e+01
4.8942086529452133e+00 3.0111791347054833e+01
4.8942086529452133e+00 3.0111791347054833e+01
ITEM: ATOMS id type x y z fx fy fz
1556 4 21.8622 24.1663 8.72327 21.9055 184.917 87.4152
1555 3 18.5092 16.984 27.9112 -25.41 -66.2272 -53.6339
ITEM: TIMESTEP
60510
ITEM: NUMBER OF ATOMS
2
ITEM: BOX BOUNDS pp pp pp
4.8940476236666193e+00 3.0111952376333427e+01
4.8940476236666193e+00 3.0111952376333427e+01
4.8940476236666193e+00 3.0111952376333427e+01
ITEM: ATOMS id type x y z fx fy fz
1556 4 21.8565 24.18 8.71359 50.8346 93.6964 121.194
1555 3 18.5135 16.9818 27.9241 -30.3614 -73.9577 -60.0547
ITEM: TIMESTEP
60520
ITEM: NUMBER OF ATOMS
2
ITEM: BOX BOUNDS pp pp pp
4.8938540214887798e+00 3.0112145978511268e+01
4.8938540214887798e+00 3.0112145978511268e+01
4.8938540214887798e+00 3.0112145978511268e+01
ITEM: ATOMS id type x y z fx fy fz
1556 4 21.8545 24.2022 8.71243 9.37113 -19.0521 -42.3295
1555 3 18.5156 16.9744 27.9329 -21.7909 -52.7932 -42.11
ITEM: TIMESTEP
60530
ITEM: NUMBER OF ATOMS
2
ITEM: BOX BOUNDS pp pp pp
4.8936331439545313e+00 3.0112366856045519e+01
4.8936331439545313e+00 3.0112366856045519e+01
4.8936331439545313e+00 3.0112366856045519e+01
ITEM: ATOMS id type x y z fx fy fz
1556 4 21.853 24.2224 8.70882 -28.4434 -141.562 -72.6421
1555 3 18.5161 16.9631 27.9386 -11.3653 -27.5545 -20.7622
ITEM: TIMESTEP
60540
ITEM: NUMBER OF ATOMS
2
ITEM: BOX BOUNDS pp pp pp
4.8933916606512948e+00 3.0112608339348757e+01
4.8933916606512948e+00 3.0112608339348757e+01
4.8933916606512948e+00 3.0112608339348757e+01
ITEM: ATOMS id type x y z fx fy fz
1556 4 21.8497 24.231 8.6991 -2.53515 -127.841 -43.6032
1555 3 18.5158 16.9497 27.9428 -7.42649 -16.313 -11.0277
ITEM: TIMESTEP
60550
ITEM: NUMBER OF ATOMS
2
ITEM: BOX BOUNDS pp pp pp
4.8931340273731436e+00 3.0112865972626921e+01
4.8931340273731436e+00 3.0112865972626921e+01
4.8931340273731436e+00 3.0112865972626921e+01
ITEM: ATOMS id type x y z fx fy fz
1556 4 21.8461 24.2291 8.68506 -14.2417 3.60679 -43.0428
1555 3 18.5149 16.9351 27.9461 -9.14809 -17.4995 -11.5063
ITEM: TIMESTEP
60560
ITEM: NUMBER OF ATOMS
2
ITEM: BOX BOUNDS pp pp pp
4.8928615556690875e+00 3.0113138444330971e+01
4.8928615556690875e+00 3.0113138444330971e+01
4.8928615556690875e+00 3.0113138444330971e+01
ITEM: ATOMS id type x y z fx fy fz
1556 4 21.8418 24.2265 8.66853 49.5363 35.5353 91.1152
1555 3 18.5133 16.9192 27.9486 -11.1146 -19.4955 -12.6315
ITEM: TIMESTEP
60570
ITEM: NUMBER OF ATOMS
2
ITEM: BOX BOUNDS pp pp pp
4.8925739031026456e+00 3.0113426096897420e+01
4.8925739031026456e+00 3.0113426096897420e+01
4.8925739031026456e+00 3.0113426096897420e+01
ITEM: ATOMS id type x y z fx fy fz
1556 4 21.8403 24.2278 8.65816 -35.4297 129.282 54.977
1555 3 18.511 16.9019 27.9502 -6.78971 -8.07338 -2.92284
ITEM: TIMESTEP
60580
ITEM: NUMBER OF ATOMS
2
ITEM: BOX BOUNDS pp pp pp
4.8922723668475783e+00 3.0113727633152489e+01
4.8922723668475783e+00 3.0113727633152489e+01
4.8922723668475783e+00 3.0113727633152489e+01
ITEM: ATOMS id type x y z fx fy fz
1556 4 21.838 24.2388 8.65374 82.9309 68.2362 81.7794
1555 3 18.5082 16.8842 27.9518 5.00644 19.4879 19.5821
ITEM: TIMESTEP
60590
ITEM: NUMBER OF ATOMS
2
ITEM: BOX BOUNDS pp pp pp
4.8919617373536930e+00 3.0114038262646375e+01
4.8919617373536930e+00 3.0114038262646375e+01
4.8919617373536930e+00 3.0114038262646375e+01
ITEM: ATOMS id type x y z fx fy fz
1556 4 21.8399 24.2564 8.65474 -87.7681 26.6244 -29.1749
1555 3 18.5058 16.8679 27.9548 21.663 57.6159 50.1383
ITEM: TIMESTEP
60600
ITEM: NUMBER OF ATOMS
2
ITEM: BOX BOUNDS pp pp pp
4.8916489230610640e+00 3.0114351076939002e+01
4.8916489230610640e+00 3.0114351076939002e+01
4.8916489230610640e+00 3.0114351076939002e+01
ITEM: ATOMS id type x y z fx fy fz
1556 4 21.8368 24.2747 8.65454 9.98875 -144.177 -30.8071
1555 3 18.5049 16.8557 27.9614 33.0753 84.2309 70.9033
ITEM: TIMESTEP
60610
ITEM: NUMBER OF ATOMS
2
ITEM: BOX BOUNDS pp pp pp
4.8913380158571051e+00 3.0114661984142970e+01
4.8913380158571051e+00 3.0114661984142970e+01
4.8913380158571051e+00 3.0114661984142970e+01
ITEM: ATOMS id type x y z fx fy fz
1556 4 21.8325 24.2821 8.6501 -82.247 -118.091 -133.037
1555 3 18.5064 16.8495 27.973 31.4778 81.7794 68.0909
ITEM: TIMESTEP
60620
ITEM: NUMBER OF ATOMS
2
ITEM: BOX BOUNDS pp pp pp
4.8910268926751215e+00 3.0114973107324957e+01
4.8910268926751215e+00 3.0114973107324957e+01
4.8910268926751215e+00 3.0114973107324957e+01
ITEM: ATOMS id type x y z fx fy fz
1556 4 21.823 24.2787 8.63651 -7.61356 -61.5189 23.3608
1555 3 18.5101 16.849 27.9894 14.3298 44.5634 37.3595
ITEM: TIMESTEP
60630
ITEM: NUMBER OF ATOMS
2
ITEM: BOX BOUNDS pp pp pp
4.8907073264059626e+00 3.0115292673594112e+01
4.8907073264059626e+00 3.0115292673594112e+01
4.8907073264059626e+00 3.0115292673594112e+01
ITEM: ATOMS id type x y z fx fy fz
1556 4 21.8114 24.271 8.62283 3.04734 113.273 11.2017
1555 3 18.5148 16.8517 28.0085 -8.58601 -5.67054 -3.88221
ITEM: TIMESTEP
60640
ITEM: NUMBER OF ATOMS
2
ITEM: BOX BOUNDS pp pp pp
4.8903694196618659e+00 3.0115630580338212e+01
4.8903694196618659e+00 3.0115630580338212e+01
4.8903694196618659e+00 3.0115630580338212e+01
ITEM: ATOMS id type x y z fx fy fz
1556 4 21.8011 24.2712 8.61202 57.0943 107.708 127.734
1555 3 18.5189 16.8541 28.0274 -25.9602 -43.7596 -35.7717
ITEM: TIMESTEP
60650
ITEM: NUMBER OF ATOMS
2
ITEM: BOX BOUNDS pp pp pp
4.8900070774270592e+00 3.0115992922573025e+01
4.8900070774270592e+00 3.0115992922573025e+01
4.8900070774270592e+00 3.0115992922573025e+01
ITEM: ATOMS id type x y z fx fy fz
1556 4 21.7947 24.2812 8.60969 16.9683 81.2523 24.499
1555 3 18.5211 16.8534 28.0439 -31.2006 -55.1726 -46.8528
ITEM: TIMESTEP
60660
ITEM: NUMBER OF ATOMS
2
ITEM: BOX BOUNDS pp pp pp
4.8896201984806993e+00 3.0116379801519383e+01
4.8896201984806993e+00 3.0116379801519383e+01
4.8896201984806993e+00 3.0116379801519383e+01
ITEM: ATOMS id type x y z fx fy fz
1556 4 21.79 24.2973 8.61107 8.97578 -38.0252 34.4084
1555 3 18.5212 16.8488 28.057 -26.9942 -46.1027 -41.9215
ITEM: TIMESTEP
60670
ITEM: NUMBER OF ATOMS
2
ITEM: BOX BOUNDS pp pp pp
4.8892121633132319e+00 3.0116787836686843e+01
4.8892121633132319e+00 3.0116787836686843e+01
4.8892121633132319e+00 3.0116787836686843e+01
ITEM: ATOMS id type x y z fx fy fz
1556 4 21.787 24.3106 8.61444 57.437 -123.276 -45.4471
1555 3 18.5194 16.841 28.0672 -18.8726 -28.8895 -30.5382
ITEM: TIMESTEP
60680
ITEM: NUMBER OF ATOMS
2
ITEM: BOX BOUNDS pp pp pp
4.8887866224433107e+00 3.0117213377556762e+01
4.8887866224433107e+00 3.0117213377556762e+01
4.8887866224433107e+00 3.0117213377556762e+01
ITEM: ATOMS id type x y z fx fy fz
1556 4 21.7868 24.3139 8.61449 -82.5494 -122.481 -67.1837
1555 3 18.5161 16.8309 28.0751 -13.2967 -17.8918 -23.7443
ITEM: TIMESTEP
60690
ITEM: NUMBER OF ATOMS
2
ITEM: BOX BOUNDS pp pp pp
4.8883451202714863e+00 3.0117654879728583e+01
4.8883451202714863e+00 3.0117654879728583e+01
4.8883451202714863e+00 3.0117654879728583e+01
ITEM: ATOMS id type x y z fx fy fz
1556 4 21.7826 24.3064 8.60943 59.0459 -101.886 21.2754
1555 3 18.5118 16.8195 28.0813 -13.7735 -20.6959 -27.2842
ITEM: TIMESTEP
60700
ITEM: NUMBER OF ATOMS
2
ITEM: BOX BOUNDS pp pp pp
4.8878861843316681e+00 3.0118113815668401e+01
4.8878861843316681e+00 3.0118113815668401e+01
4.8878861843316681e+00 3.0118113815668401e+01
ITEM: ATOMS id type x y z fx fy fz
1556 4 21.781 24.2914 8.60509 -10.2798 92.5451 -16.0438
1555 3 18.5066 16.8066 28.0855 -15.0552 -24.9294 -31.5473
ITEM: TIMESTEP
60710
ITEM: NUMBER OF ATOMS
2
ITEM: BOX BOUNDS pp pp pp
4.8874069721146736e+00 3.0118593027885403e+01
4.8874069721146736e+00 3.0118593027885403e+01
4.8874069721146736e+00 3.0118593027885403e+01
ITEM: ATOMS id type x y z fx fy fz
1556 4 21.7806 24.2833 8.6011 83.7069 151.618 118.804
1555 3 18.5002 16.7919 28.0875 -10.6921 -15.413 -24.8968
ITEM: TIMESTEP
60720
ITEM: NUMBER OF ATOMS
2
ITEM: BOX BOUNDS pp pp pp
4.8869075541454450e+00 3.0119092445854626e+01
4.8869075541454450e+00 3.0119092445854626e+01
4.8869075541454450e+00 3.0119092445854626e+01
ITEM: ATOMS id type x y z fx fy fz
1556 4 21.7848 24.2885 8.60455 -35.0844 145.332 11.534
1555 3 18.4932 16.7763 28.0878 4.94115 21.0947 2.65454
ITEM: TIMESTEP
60730
ITEM: NUMBER OF ATOMS
2
ITEM: BOX BOUNDS pp pp pp
4.8863954957548348e+00 3.0119604504245249e+01
4.8863954957548348e+00 3.0119604504245249e+01
4.8863954957548348e+00 3.0119604504245249e+01
ITEM: ATOMS id type x y z fx fy fz
1556 4 21.7887 24.3043 8.61075 45.0153 -55.5952 -29.8913
1555 3 18.4865 16.7622 28.0883 25.1111 69.3573 39.2237
ITEM: TIMESTEP
60740
ITEM: NUMBER OF ATOMS
2
ITEM: BOX BOUNDS pp pp pp
4.8858827971900212e+00 3.0120117202810057e+01
4.8858827971900212e+00 3.0120117202810057e+01
4.8858827971900212e+00 3.0120117202810057e+01
ITEM: ATOMS id type x y z fx fy fz
1556 4 21.794 24.3161 8.6132 -92.2027 -151.55 -111.257
1555 3 18.4817 16.7531 28.0917 37.7729 100.958 63.1693
ITEM: TIMESTEP
60750
ITEM: NUMBER OF ATOMS
2
ITEM: BOX BOUNDS pp pp pp
4.8853779166441544e+00 3.0120622083355933e+01
4.8853779166441544e+00 3.0120622083355933e+01
4.8853779166441544e+00 3.0120622083355933e+01
ITEM: ATOMS id type x y z fx fy fz
1556 4 21.7933 24.3148 8.60729 -13.6543 -156.248 -49.413
1555 3 18.4794 16.7511 28.0995 33.4887 93.2333 57.5229
ITEM: TIMESTEP
60760
ITEM: NUMBER OF ATOMS
2
ITEM: BOX BOUNDS pp pp pp
4.8848807913086869e+00 3.0121119208691400e+01
4.8848807913086869e+00 3.0121119208691400e+01
4.8848807913086869e+00 3.0121119208691400e+01
ITEM: ATOMS id type x y z fx fy fz
1556 4 21.7908 24.3012 8.59616 18.9482 -11.2763 -69.4103
1555 3 18.4796 16.7557 28.1112 15.3119 52.5519 27.3361
ITEM: TIMESTEP
60770
ITEM: NUMBER OF ATOMS
2
ITEM: BOX BOUNDS pp pp pp
4.8843834091743723e+00 3.0121616590825713e+01
4.8843834091743723e+00 3.0121616590825713e+01
4.8843834091743723e+00 3.0121616590825713e+01
ITEM: ATOMS id type x y z fx fy fz
1556 4 21.7896 24.2864 8.5801 8.17002 106.832 44.6452
1555 3 18.4808 16.7641 28.125 -7.88384 -0.269581 -11.7133
ITEM: TIMESTEP
60780
ITEM: NUMBER OF ATOMS
2
ITEM: BOX BOUNDS pp pp pp
4.8838741297795458e+00 3.0122125870220529e+01
4.8838741297795458e+00 3.0122125870220529e+01
4.8838741297795458e+00 3.0122125870220529e+01
ITEM: ATOMS id type x y z fx fy fz
1556 4 21.7901 24.2807 8.56763 78.372 156.079 92.6963
1555 3 18.4814 16.7725 28.1379 -24.4687 -38.1026 -39.1714
ITEM: TIMESTEP
60790
ITEM: NUMBER OF ATOMS
2
ITEM: BOX BOUNDS pp pp pp
4.8833443199201980e+00 3.0122655680079880e+01
4.8833443199201980e+00 3.0122655680079880e+01
4.8833443199201980e+00 3.0122655680079880e+01
ITEM: ATOMS id type x y z fx fy fz
1556 4 21.7962 24.2886 8.56208 26.948 134.634 3.38185
1555 3 18.4804 16.7784 28.1482 -27.5759 -45.1821 -43.3089
ITEM: TIMESTEP
60800
ITEM: NUMBER OF ATOMS
2
ITEM: BOX BOUNDS pp pp pp
4.8827919932833428e+00 3.0123208006716741e+01
4.8827919932833428e+00 3.0123208006716741e+01
4.8827919932833428e+00 3.0123208006716741e+01
ITEM: ATOMS id type x y z fx fy fz
1556 4 21.8056 24.307 8.55801 36.285 -59.7783 31.4388
1555 3 18.4774 16.7811 28.1555 -20.7353 -29.6211 -30.475
ITEM: TIMESTEP
60810
ITEM: NUMBER OF ATOMS
2
ITEM: BOX BOUNDS pp pp pp
4.8822193425207150e+00 3.0123780657479358e+01
4.8822193425207150e+00 3.0123780657479358e+01
4.8822193425207150e+00 3.0123780657479358e+01
ITEM: ATOMS id type x y z fx fy fz