ITEM: TIMESTEP
60000
ITEM: NUMBER OF ATOMS
2
ITEM: BOX BOUNDS pp pp pp
4.8160040582079322e+00 3.0189995941792077e+01
4.8160040582079322e+00 3.0189995941792077e+01
4.8160040582079322e+00 3.0189995941792077e+01
ITEM: ATOMS id type x y z fx fy fz
1556 4 21.7557 19.3724 5.27215 -8.24671 15.6461 5.41194
1555 3 17.4773 22.1532 22.0398 0.58208 -6.82592 18.01
ITEM: TIMESTEP
60010
ITEM: NUMBER OF ATOMS
2
ITEM: BOX BOUNDS pp pp pp
4.8155243136938459e+00 3.0190475686306179e+01
4.8155243136938459e+00 3.0190475686306179e+01
4.8155243136938459e+00 3.0190475686306179e+01
ITEM: ATOMS id type x y z fx fy fz
1556 4 21.7555 19.3765 5.26342 0.942981 35.3274 51.2446
1555 3 17.4778 22.1579 22.0445 -12.3926 -3.4678 -1.30265
ITEM: TIMESTEP
60020
ITEM: NUMBER OF ATOMS
2
ITEM: BOX BOUNDS pp pp pp
4.8150559019748655e+00 3.0190944098025156e+01
4.8150559019748655e+00 3.0190944098025156e+01
4.8150559019748655e+00 3.0190944098025156e+01
ITEM: ATOMS id type x y z fx fy fz
1556 4 21.755 19.3834 5.25879 -32.1462 11.9711 47.2301
1555 3 17.4773 22.1622 22.0491 -22.7176 -1.34467 -15.5793
ITEM: TIMESTEP
60030
ITEM: NUMBER OF ATOMS
2
ITEM: BOX BOUNDS pp pp pp
4.8145950080766724e+00 3.0191404991923356e+01
4.8145950080766724e+00 3.0191404991923356e+01
4.8145950080766724e+00 3.0191404991923356e+01
ITEM: ATOMS id type x y z fx fy fz
1556 4 21.7524 19.3917 5.25825 18.9502 22.2914 33.6292
1555 3 17.4753 22.1665 22.0526 -29.1064 -0.708703 -23.3809
ITEM: TIMESTEP
60040
ITEM: NUMBER OF ATOMS
2
ITEM: BOX BOUNDS pp pp pp
4.8141390932231882e+00 3.0191860906776846e+01
4.8141390932231882e+00 3.0191860906776846e+01
4.8141390932231882e+00 3.0191860906776846e+01
ITEM: ATOMS id type x y z fx fy fz
1556 4 21.751 19.4012 5.26114 34.731 -42.5242 50.3462
1555 3 17.4711 22.1706 22.0545 -29.6433 -2.24842 -21.968
ITEM: TIMESTEP
60050
ITEM: NUMBER OF ATOMS
2
ITEM: BOX BOUNDS pp pp pp
4.8136875512507107e+00 3.0192312448749327e+01
4.8136875512507107e+00 3.0192312448749327e+01
4.8136875512507107e+00 3.0192312448749327e+01
ITEM: ATOMS id type x y z fx fy fz
1556 4 21.7526 19.4082 5.26735 39.7158 -11.6333 -40.804
1555 3 17.4649 22.1746 22.0549 -22.6374 -6.73463 -8.60787
ITEM: TIMESTEP
60060
ITEM: NUMBER OF ATOMS
2
ITEM: BOX BOUNDS pp pp pp
4.8132422336711809e+00 3.0192757766328860e+01
4.8132422336711809e+00 3.0192757766328860e+01
4.8132422336711809e+00 3.0192757766328860e+01
ITEM: ATOMS id type x y z fx fy fz
1556 4 21.7574 19.4131 5.27141 22.7105 -51.5004 -0.260167
1555 3 17.457 22.1781 22.0546 -13.1867 -10.9413 6.54945
ITEM: TIMESTEP
60070
ITEM: NUMBER OF ATOMS
2
ITEM: BOX BOUNDS pp pp pp
4.8128062330264001e+00 3.0193193766973643e+01
4.8128062330264001e+00 3.0193193766973643e+01
4.8128062330264001e+00 3.0193193766973643e+01
ITEM: ATOMS id type x y z fx fy fz
1556 4 21.7646 19.4149 5.27477 19.2705 26.7111 -11.5337
1555 3 17.4481 22.1808 22.0548 -1.76449 -15.0058 23.2773
ITEM: TIMESTEP
60080
ITEM: NUMBER OF ATOMS
2
ITEM: BOX BOUNDS pp pp pp
4.8123833733840780e+00 3.0193616626615967e+01
4.8123833733840780e+00 3.0193616626615967e+01
4.8123833733840780e+00 3.0193616626615967e+01
ITEM: ATOMS id type x y z fx fy fz
1556 4 21.7725 19.4179 5.27733 -62.6977 15.4167 -15.2021
1555 3 17.4392 22.1824 22.0567 8.20486 -17.338 35.8324
ITEM: TIMESTEP
60090
ITEM: NUMBER OF ATOMS
2
ITEM: BOX BOUNDS pp pp pp
4.8119768483717653e+00 3.0194023151628283e+01
4.8119768483717653e+00 3.0194023151628283e+01
4.8119768483717653e+00 3.0194023151628283e+01
ITEM: ATOMS id type x y z fx fy fz
1556 4 21.7761 19.423 5.27865 -28.4205 53.0178 5.28453
1555 3 17.4307 22.1828 22.0611 12.773 -16.0483 37.5012
ITEM: TIMESTEP
60100
ITEM: NUMBER OF ATOMS
2
ITEM: BOX BOUNDS pp pp pp
4.8115877959862399e+00 3.0194412204013815e+01
4.8115877959862399e+00 3.0194412204013815e+01
4.8115877959862399e+00 3.0194412204013815e+01
ITEM: ATOMS id type x y z fx fy fz
1556 4 21.7768 19.4319 5.28041 -26.935 18.5028 12.0092
1555 3 17.4232 22.182 22.0682 12.7366 -12.119 30.5985
ITEM: TIMESTEP
60110
ITEM: NUMBER OF ATOMS
2
ITEM: BOX BOUNDS pp pp pp
4.8112154443815562e+00 3.0194784555618494e+01
4.8112154443815562e+00 3.0194784555618494e+01
4.8112154443815562e+00 3.0194784555618494e+01
ITEM: ATOMS id type x y z fx fy fz
1556 4 21.7752 19.4427 5.28263 -21.893 6.34798 -36.7037
1555 3 17.4166 22.1804 22.0775 9.07266 -6.50177 17.3815
ITEM: TIMESTEP
60120
ITEM: NUMBER OF ATOMS
2
ITEM: BOX BOUNDS pp pp pp
4.8108572914041261e+00 3.0195142708595924e+01
4.8108572914041261e+00 3.0195142708595924e+01
4.8108572914041261e+00 3.0195142708595924e+01
ITEM: ATOMS id type x y z fx fy fz
1556 4 21.7722 19.4539 5.2825 43.0479 -24.8949 5.47953
1555 3 17.4106 22.1782 22.088 1.34704 0.88376 -2.96907
ITEM: TIMESTEP
60130
ITEM: NUMBER OF ATOMS
2
ITEM: BOX BOUNDS pp pp pp
4.8105092315249145e+00 3.0195490768475125e+01
4.8105092315249145e+00 3.0195490768475125e+01
4.8105092315249145e+00 3.0195490768475125e+01
ITEM: ATOMS id type x y z fx fy fz
1556 4 21.7723 19.4628 5.28245 38.1113 -52.7068 1.0098
1555 3 17.4048 22.1761 22.0983 -4.84227 6.45724 -19.5354
ITEM: TIMESTEP
60140
ITEM: NUMBER OF ATOMS
2
ITEM: BOX BOUNDS pp pp pp
4.8101675455034965e+00 3.0195832454496536e+01
4.8101675455034965e+00 3.0195832454496536e+01
4.8101675455034965e+00 3.0195832454496536e+01
ITEM: ATOMS id type x y z fx fy fz
1556 4 21.7758 19.4679 5.28229 27.6053 -14.7434 -15.6529
1555 3 17.3986 22.1745 22.1072 -7.84984 9.21506 -29.2143
ITEM: TIMESTEP
60150
ITEM: NUMBER OF ATOMS
2
ITEM: BOX BOUNDS pp pp pp
4.8098298718738768e+00 3.0196170128126155e+01
4.8098298718738768e+00 3.0196170128126155e+01
4.8098298718738768e+00 3.0196170128126155e+01
ITEM: ATOMS id type x y z fx fy fz
1556 4 21.7816 19.471 5.28188 10.6307 -22.6407 64.2607
1555 3 17.3918 22.1735 22.114 -7.92929 9.38882 -32.6364
ITEM: TIMESTEP
60160
ITEM: NUMBER OF ATOMS
2
ITEM: BOX BOUNDS pp pp pp
4.8094954767523070e+00 3.0196504523247729e+01
4.8094954767523070e+00 3.0196504523247729e+01
4.8094954767523070e+00 3.0196504523247729e+01
ITEM: ATOMS id type x y z fx fy fz
1556 4 21.7882 19.4731 5.2859 -20.3197 36.8504 30.7002
1555 3 17.3845 22.1732 22.1185 -2.03887 5.21267 -24.0099
ITEM: TIMESTEP
60170
ITEM: NUMBER OF ATOMS
2
ITEM: BOX BOUNDS pp pp pp
4.8091661234882430e+00 3.0196833876511793e+01
4.8091661234882430e+00 3.0196833876511793e+01
4.8091661234882430e+00 3.0196833876511793e+01
ITEM: ATOMS id type x y z fx fy fz
1556 4 21.793 19.4775 5.29322 -45.5755 13.2628 30.4189
1555 3 17.3771 22.1732 22.1214 6.48477 -1.10453 -9.908
ITEM: TIMESTEP
60180
ITEM: NUMBER OF ATOMS
2
ITEM: BOX BOUNDS pp pp pp
4.8088453101528295e+00 3.0197154689847203e+01
4.8088453101528295e+00 3.0197154689847203e+01
4.8088453101528295e+00 3.0197154689847203e+01
ITEM: ATOMS id type x y z fx fy fz
1556 4 21.7944 19.4836 5.30284 1.62551 22.6263 1.42823
1555 3 17.3701 22.1732 22.1234 15.2916 -7.95555 5.14202
ITEM: TIMESTEP
60190
ITEM: NUMBER OF ATOMS
2
ITEM: BOX BOUNDS pp pp pp
4.8085370806618464e+00 3.0197462919338193e+01
4.8085370806618464e+00 3.0197462919338193e+01
4.8085370806618464e+00 3.0197462919338193e+01
ITEM: ATOMS id type x y z fx fy fz
1556 4 21.7954 19.491 5.31278 0.2553 -28.0522 -20.5496
1555 3 17.3643 22.1726 22.1259 22.9475 -14.2806 18.4026
ITEM: TIMESTEP
60200
ITEM: NUMBER OF ATOMS
2
ITEM: BOX BOUNDS pp pp pp
4.8082449861630518e+00 3.0197755013836986e+01
4.8082449861630518e+00 3.0197755013836986e+01
4.8082449861630518e+00 3.0197755013836986e+01
ITEM: ATOMS id type x y z fx fy fz
1556 4 21.7966 19.4965 5.32044 7.38653 -13.8753 -78.4742
1555 3 17.36 22.1709 22.1296 27.3219 -18.6283 25.8166
ITEM: TIMESTEP
60210
ITEM: NUMBER OF ATOMS
2
ITEM: BOX BOUNDS pp pp pp
4.8079709280849841e+00 3.0198029071915052e+01
4.8079709280849841e+00 3.0198029071915052e+01
4.8079709280849841e+00 3.0198029071915052e+01
ITEM: ATOMS id type x y z fx fy fz
1556 4 21.7987 19.5005 5.32239 28.0744 -26.2767 -11.4214
1555 3 17.3578 22.1679 22.1352 25.3744 -19.02 21.6134
ITEM: TIMESTEP
60220
ITEM: NUMBER OF ATOMS
2
ITEM: BOX BOUNDS pp pp pp
4.8077142061294627e+00 3.0198285793870561e+01
4.8077142061294627e+00 3.0198285793870561e+01
4.8077142061294627e+00 3.0198285793870561e+01
ITEM: ATOMS id type x y z fx fy fz
1556 4 21.8027 19.5025 5.3224 -11.1505 2.88402 -33.1976
1555 3 17.3574 22.1635 22.1423 20.6164 -17.4654 12.7895
ITEM: TIMESTEP
60230
ITEM: NUMBER OF ATOMS
2
ITEM: BOX BOUNDS pp pp pp
4.8074724154559565e+00 3.0198527584544067e+01
4.8074724154559565e+00 3.0198527584544067e+01
4.8074724154559565e+00 3.0198527584544067e+01
ITEM: ATOMS id type x y z fx fy fz
1556 4 21.8057 19.5045 5.32012 -39.1846 6.47649 8.56236
1555 3 17.3584 22.1579 22.1503 11.7693 -13.1182 -2.933
ITEM: TIMESTEP
60240
ITEM: NUMBER OF ATOMS
2
ITEM: BOX BOUNDS pp pp pp
4.8072413524174795e+00 3.0198758647582544e+01
4.8072413524174795e+00 3.0198758647582544e+01
4.8072413524174795e+00 3.0198758647582544e+01
ITEM: ATOMS id type x y z fx fy fz
1556 4 21.8059 19.5076 5.31873 -3.62149 45.3898 56.2199
1555 3 17.3603 22.1513 22.158 1.38072 -7.4648 -20.6032
ITEM: TIMESTEP
60250
ITEM: NUMBER OF ATOMS
2
ITEM: BOX BOUNDS pp pp pp
4.8070162788830189e+00 3.0198983721117010e+01
4.8070162788830189e+00 3.0198983721117010e+01
4.8070162788830189e+00 3.0198983721117010e+01
ITEM: ATOMS id type x y z fx fy fz
1556 4 21.805 19.5138 5.32172 -43.0209 -3.95234 36.4945
1555 3 17.3623 22.1441 22.1643 -6.33036 -2.99323 -32.3036
ITEM: TIMESTEP
60260
ITEM: NUMBER OF ATOMS
2
ITEM: BOX BOUNDS pp pp pp
4.8067938458421473e+00 3.0199206154157878e+01
4.8067938458421473e+00 3.0199206154157878e+01
4.8067938458421473e+00 3.0199206154157878e+01
ITEM: ATOMS id type x y z fx fy fz
1556 4 21.8013 19.5204 5.32805 28.7694 -0.723367 25.6857
1555 3 17.3639 22.1368 22.1683 -11.0081 0.111943 -37.6922
ITEM: TIMESTEP
60270
ITEM: NUMBER OF ATOMS
2
ITEM: BOX BOUNDS pp pp pp
4.8065726766828618e+00 3.0199427323317163e+01
4.8065726766828618e+00 3.0199427323317163e+01
4.8065726766828618e+00 3.0199427323317163e+01
ITEM: ATOMS id type x y z fx fy fz
1556 4 21.7993 19.5262 5.33684 40.7843 -50.2029 20.48
1555 3 17.3647 22.1294 22.1696 -10.6899 0.727068 -33.3547
ITEM: TIMESTEP
60280
ITEM: NUMBER OF ATOMS
2
ITEM: BOX BOUNDS pp pp pp
4.8063540149101858e+00 3.0199645985089838e+01
4.8063540149101858e+00 3.0199645985089838e+01
4.8063540149101858e+00 3.0199645985089838e+01
ITEM: ATOMS id type x y z fx fy fz
1556 4 21.801 19.5286 5.34706 27.9691 -30.0248 -18.9762
1555 3 17.3648 22.122 22.1685 -4.93631 -1.36719 -18.7934
ITEM: TIMESTEP
60290
ITEM: NUMBER OF ATOMS
2
ITEM: BOX BOUNDS pp pp pp
4.8061417083569893e+00 3.0199858291643022e+01
4.8061417083569893e+00 3.0199858291643022e+01
4.8061417083569893e+00 3.0199858291643022e+01
ITEM: ATOMS id type x y z fx fy fz
1556 4 21.8047 19.528 5.35604 -8.46862 -19.4869 -17.4504
1555 3 17.3645 22.1146 22.166 2.65946 -4.06113 -1.26545
ITEM: TIMESTEP
60300
ITEM: NUMBER OF ATOMS
2
ITEM: BOX BOUNDS pp pp pp
4.8059405594586089e+00 3.0200059440541395e+01
4.8059405594586089e+00 3.0200059440541395e+01
4.8059405594586089e+00 3.0200059440541395e+01
ITEM: ATOMS id type x y z fx fy fz
1556 4 21.808 19.526 5.3637 -14.9661 20.2002 5.54016
1555 3 17.3644 22.1068 22.1635 9.5071 -5.9161 14.0243
ITEM: TIMESTEP
60310
ITEM: NUMBER OF ATOMS
2
ITEM: BOX BOUNDS pp pp pp
4.8057547398071261e+00 3.0200245260192869e+01
4.8057547398071261e+00 3.0200245260192869e+01
4.8057547398071261e+00 3.0200245260192869e+01
ITEM: ATOMS id type x y z fx fy fz
1556 4 21.8096 19.5256 5.37111 -69.4188 38.9347 -43.5302
1555 3 17.3649 22.0986 22.1619 14.1293 -6.20443 24.1905
ITEM: TIMESTEP
60320
ITEM: NUMBER OF ATOMS
2
ITEM: BOX BOUNDS pp pp pp
4.8055867717255794e+00 3.0200413228274421e+01
4.8055867717255794e+00 3.0200413228274421e+01
4.8055867717255794e+00 3.0200413228274421e+01
ITEM: ATOMS id type x y z fx fy fz
1556 4 21.8056 19.5281 5.37555 -60.1377 15.7072 -6.10816
1555 3 17.3665 22.09 22.1621 11.9407 -2.47469 20.4713
ITEM: TIMESTEP
60330
ITEM: NUMBER OF ATOMS
2
ITEM: BOX BOUNDS pp pp pp
4.8054360368791311e+00 3.0200563963120864e+01
4.8054360368791311e+00 3.0200563963120864e+01
4.8054360368791311e+00 3.0200563963120864e+01
ITEM: ATOMS id type x y z fx fy fz
1556 4 21.7969 19.5326 5.37903 3.90581 31.7809 -11.2476
1555 3 17.3689 22.0812 22.1636 5.35607 3.65811 7.68553
ITEM: TIMESTEP
60340
ITEM: NUMBER OF ATOMS
2
ITEM: BOX BOUNDS pp pp pp
4.8052995682383308e+00 3.0200700431761661e+01
4.8052995682383308e+00 3.0200700431761661e+01
4.8052995682383308e+00 3.0200700431761661e+01
ITEM: ATOMS id type x y z fx fy fz
1556 4 21.7873 19.5388 5.38128 -29.6641 -47.3184 -47.948
1555 3 17.3717 22.0727 22.1657 -3.23795 10.6734 -9.3773
ITEM: TIMESTEP
60350
ITEM: NUMBER OF ATOMS
2
ITEM: BOX BOUNDS pp pp pp
4.8051730986192620e+00 3.0200826901380736e+01
4.8051730986192620e+00 3.0200826901380736e+01
4.8051730986192620e+00 3.0200826901380736e+01
ITEM: ATOMS id type x y z fx fy fz
1556 4 21.7767 19.5422 5.38009 67.3142 -23.3836 0.663428
1555 3 17.3742 22.0649 22.167 -13.2532 18.1382 -29.3465
ITEM: TIMESTEP
60360
ITEM: NUMBER OF ATOMS
2
ITEM: BOX BOUNDS pp pp pp
4.8050519757013905e+00 3.0200948024298604e+01
4.8050519757013905e+00 3.0200948024298604e+01
4.8050519757013905e+00 3.0200948024298604e+01
ITEM: ATOMS id type x y z fx fy fz
1556 4 21.7702 19.5425 5.37854 12.0575 -57.0488 -0.340206
1555 3 17.3758 22.0585 22.1663 -18.8304 22.7 -40.5573
ITEM: TIMESTEP
60370
ITEM: NUMBER OF ATOMS
2
ITEM: BOX BOUNDS pp pp pp
4.8049335504156137e+00 3.0201066449584388e+01
4.8049335504156137e+00 3.0201066449584388e+01
4.8049335504156137e+00 3.0201066449584388e+01
ITEM: ATOMS id type x y z fx fy fz
1556 4 21.7655 19.5393 5.37705 11.1625 16.2433 2.42732
1555 3 17.3761 22.0537 22.1627 -19.4939 24.0936 -41.8741
ITEM: TIMESTEP
60380
ITEM: NUMBER OF ATOMS
2
ITEM: BOX BOUNDS pp pp pp
4.8048175767079755e+00 3.0201182423292028e+01
4.8048175767079755e+00 3.0201182423292028e+01
4.8048175767079755e+00 3.0201182423292028e+01
ITEM: ATOMS id type x y z fx fy fz
1556 4 21.7611 19.5364 5.37612 -40.8153 2.79842 40.5037
1555 3 17.375 22.0506 22.1561 -16.2902 22.9071 -35.2598
ITEM: TIMESTEP
60390
ITEM: NUMBER OF ATOMS
2
ITEM: BOX BOUNDS pp pp pp
4.8047056512045305e+00 3.0201294348795479e+01
4.8047056512045305e+00 3.0201294348795479e+01
4.8047056512045305e+00 3.0201294348795479e+01
ITEM: ATOMS id type x y z fx fy fz
1556 4 21.7538 19.5345 5.37834 -19.673 43.838 22.9155
1555 3 17.3727 22.0491 22.1469 -9.0715 19.0128 -20.3782
ITEM: TIMESTEP
60400
ITEM: NUMBER OF ATOMS
2
ITEM: BOX BOUNDS pp pp pp
4.8046009892704813e+00 3.0201399010729542e+01
4.8046009892704813e+00 3.0201399010729542e+01
4.8046009892704813e+00 3.0201399010729542e+01
ITEM: ATOMS id type x y z fx fy fz
1556 4 21.7443 19.5359 5.38223 -39.5333 18.2319 -30.4783
1555 3 17.3697 22.0491 22.1363 -0.357091 13.7859 -2.12728
ITEM: TIMESTEP
60410
ITEM: NUMBER OF ATOMS
2
ITEM: BOX BOUNDS pp pp pp
4.8045071737432306e+00 3.0201492826256796e+01
4.8045071737432306e+00 3.0201492826256796e+01
4.8045071737432306e+00 3.0201492826256796e+01
ITEM: ATOMS id type x y z fx fy fz
1556 4 21.7319 19.5387 5.38403 -2.08048 -10.1381 -19.6171
1555 3 17.3667 22.05 22.1255 5.67549 9.53333 11.2531
ITEM: TIMESTEP
60420
ITEM: NUMBER OF ATOMS
2
ITEM: BOX BOUNDS pp pp pp
4.8044264092922759e+00 3.0201573590707760e+01
4.8044264092922759e+00 3.0201573590707760e+01
4.8044264092922759e+00 3.0201573590707760e+01
ITEM: ATOMS id type x y z fx fy fz
1556 4 21.7194 19.541 5.38387 36.677 -12.0161 -35.5217
1555 3 17.3642 22.0517 22.1155 9.63461 5.84764 20.8749
ITEM: TIMESTEP
60430
ITEM: NUMBER OF ATOMS
2
ITEM: BOX BOUNDS pp pp pp
4.8043594920625274e+00 3.0201640507937512e+01
4.8043594920625274e+00 3.0201640507937512e+01
4.8043594920625274e+00 3.0201640507937512e+01
ITEM: ATOMS id type x y z fx fy fz
1556 4 21.7092 19.5418 5.38017 -8.34133 -36.967 -88.9736
1555 3 17.3623 22.0537 22.107 10.6538 3.23707 24.9065
ITEM: TIMESTEP
60440
ITEM: NUMBER OF ATOMS
2
ITEM: BOX BOUNDS pp pp pp
4.8043055411749851e+00 3.0201694458825060e+01
4.8043055411749851e+00 3.0201694458825060e+01
4.8043055411749851e+00 3.0201694458825060e+01
ITEM: ATOMS id type x y z fx fy fz
1556 4 21.6994 19.5401 5.36995 44.7503 -4.23596 -2.16587
1555 3 17.3611 22.056 22.1002 5.74892 3.52535 17.311
ITEM: TIMESTEP
60450
ITEM: NUMBER OF ATOMS
2
ITEM: BOX BOUNDS pp pp pp
4.8042615228866445e+00 3.0201738477113409e+01
4.8042615228866445e+00 3.0201738477113409e+01
4.8042615228866445e+00 3.0201738477113409e+01
ITEM: ATOMS id type x y z fx fy fz
1556 4 21.6921 19.5376 5.35872 -30.6507 3.29649 -6.0866
1555 3 17.3603 22.0586 22.0947 -0.0121207 4.04499 8.08921
ITEM: TIMESTEP
60460
ITEM: NUMBER OF ATOMS
2
ITEM: BOX BOUNDS pp pp pp
4.8042239792872454e+00 3.0201776020712813e+01
4.8042239792872454e+00 3.0201776020712813e+01
4.8042239792872454e+00 3.0201776020712813e+01
ITEM: ATOMS id type x y z fx fy fz
1556 4 21.683 19.5359 5.34713 -28.8835 47.0424 7.96968
1555 3 17.3596 22.0615 22.0897 -7.36109 5.51372 -4.29309
ITEM: TIMESTEP
60470
ITEM: NUMBER OF ATOMS
2
ITEM: BOX BOUNDS pp pp pp
4.8041893607723765e+00 3.0201810639227688e+01
4.8041893607723765e+00 3.0201810639227688e+01
4.8041893607723765e+00 3.0201810639227688e+01
ITEM: ATOMS id type x y z fx fy fz
1556 4 21.6713 19.5377 5.33669 -7.01958 15.816 65.309
1555 3 17.3583 22.0648 22.0844 -15.0057 7.50931 -17.3975
ITEM: TIMESTEP
60480
ITEM: NUMBER OF ATOMS
2
ITEM: BOX BOUNDS pp pp pp
4.8041549167953708e+00 3.0201845083204695e+01
4.8041549167953708e+00 3.0201845083204695e+01
4.8041549167953708e+00 3.0201845083204695e+01
ITEM: ATOMS id type x y z fx fy fz
1556 4 21.6589 19.5412 5.33118 17.9112 3.71581 21.9505
1555 3 17.3559 22.0686 22.0779 -18.0118 7.42734 -21.46
ITEM: TIMESTEP
60490
ITEM: NUMBER OF ATOMS
2
ITEM: BOX BOUNDS pp pp pp
4.8041201044586650e+00 3.0201879895541396e+01
4.8041201044586650e+00 3.0201879895541396e+01
4.8041201044586650e+00 3.0201879895541396e+01
ITEM: ATOMS id type x y z fx fy fz
1556 4 21.648 19.5447 5.32788 29.4712 -37.3495 10.7653
1555 3 17.3523 22.0729 22.0699 -16.9824 5.80605 -17.6867
ITEM: TIMESTEP
60500
ITEM: NUMBER OF ATOMS
2
ITEM: BOX BOUNDS pp pp pp
4.8040861054806943e+00 3.0201913894519372e+01
4.8040861054806943e+00 3.0201913894519372e+01
4.8040861054806943e+00 3.0201913894519372e+01
ITEM: ATOMS id type x y z fx fy fz
1556 4 21.6401 19.5454 5.32565 74.1571 -21.5151 13.8621
1555 3 17.3474 22.0777 22.0606 -11.8868 2.69861 -5.95812
ITEM: TIMESTEP
60510
ITEM: NUMBER OF ATOMS
2
ITEM: BOX BOUNDS pp pp pp
4.8040555842454378e+00 3.0201944415754628e+01
4.8040555842454378e+00 3.0201944415754628e+01
4.8040555842454378e+00 3.0201944415754628e+01
ITEM: ATOMS id type x y z fx fy fz
1556 4 21.6379 19.5439 5.32447 29.4023 -30.7344 -1.87757
1555 3 17.3417 22.0826 22.0509 -2.75554 -1.93951 13.7166
ITEM: TIMESTEP
60520
ITEM: NUMBER OF ATOMS
2
ITEM: BOX BOUNDS pp pp pp
4.8040324063918298e+00 3.0201967593608231e+01
4.8040324063918298e+00 3.0201967593608231e+01
4.8040324063918298e+00 3.0201967593608231e+01
ITEM: ATOMS id type x y z fx fy fz
1556 4 21.6385 19.5401 5.32292 -5.02427 9.79214 -31.8121
1555 3 17.3358 22.0874 22.0423 6.77607 -6.17576 34.063
ITEM: TIMESTEP
60530
ITEM: NUMBER OF ATOMS
2
ITEM: BOX BOUNDS pp pp pp
4.8040200945416416e+00 3.0201979905458426e+01
4.8040200945416416e+00 3.0201979905458426e+01
4.8040200945416416e+00 3.0201979905458426e+01
ITEM: ATOMS id type x y z fx fy fz
1556 4 21.639 19.537 5.31936 3.62372 35.4661 18.5869
1555 3 17.3303 22.0918 22.0361 12.276 -7.70615 46.236
ITEM: TIMESTEP
60540
ITEM: NUMBER OF ATOMS
2
ITEM: BOX BOUNDS pp pp pp
4.8040202691216365e+00 3.0201979730878424e+01
4.8040202691216365e+00 3.0201979730878424e+01
4.8040202691216365e+00 3.0201979730878424e+01
ITEM: ATOMS id type x y z fx fy fz
1556 4 21.6393 19.537 5.31654 -40.8237 43.4078 -23.3117
1555 3 17.3258 22.0956 22.0331 14.2119 -7.14754 51.2873
ITEM: TIMESTEP
60550
ITEM: NUMBER OF ATOMS
2
ITEM: BOX BOUNDS pp pp pp
4.8040327100071334e+00 3.0201967289992936e+01
4.8040327100071334e+00 3.0201967289992936e+01
4.8040327100071334e+00 3.0201967289992936e+01
ITEM: ATOMS id type x y z fx fy fz
1556 4 21.6365 19.5404 5.31224 -32.9529 19.4508 -15.0578
1555 3 17.3222 22.0989 22.0339 9.36526 -2.92844 42.8553
ITEM: TIMESTEP
60560
ITEM: NUMBER OF ATOMS
2
ITEM: BOX BOUNDS pp pp pp
4.8040548060867803e+00 3.0201945193913286e+01
4.8040548060867803e+00 3.0201945193913286e+01
4.8040548060867803e+00 3.0201945193913286e+01
ITEM: ATOMS id type x y z fx fy fz
1556 4 21.6312 19.5459 5.30666 40.2686 5.56317 2.74054
1555 3 17.3193 22.102 22.0377 -0.787412 3.89837 23.9194
ITEM: TIMESTEP
60570
ITEM: NUMBER OF ATOMS
2
ITEM: BOX BOUNDS pp pp pp
4.8040823501935446e+00 3.0201917649806518e+01
4.8040823501935446e+00 3.0201917649806518e+01
4.8040823501935446e+00 3.0201917649806518e+01
ITEM: ATOMS id type x y z fx fy fz
1556 4 21.6286 19.5515 5.30095 25.6549 -39.8938 -30.5264
1555 3 17.3163 22.1054 22.0432 -11.5402 10.587 3.82596
ITEM: TIMESTEP
60580
ITEM: NUMBER OF ATOMS
2
ITEM: BOX BOUNDS pp pp pp
4.8041113144313474e+00 3.0201888685568719e+01
4.8041113144313474e+00 3.0201888685568719e+01
4.8041113144313474e+00 3.0201888685568719e+01
ITEM: ATOMS id type x y z fx fy fz
1556 4 21.6286 19.554 5.29312 38.9781 -43.2717 5.96412
1555 3 17.3124 22.1096 22.049 -21.934 16.7453 -15.6166
ITEM: TIMESTEP
60590
ITEM: NUMBER OF ATOMS
2
ITEM: BOX BOUNDS pp pp pp
4.8041385092322759e+00 3.0201861490767790e+01
4.8041385092322759e+00 3.0201861490767790e+01
4.8041385092322759e+00 3.0201861490767790e+01
ITEM: ATOMS id type x y z fx fy fz
1556 4 21.6321 19.5532 5.2858 60.5802 2.70749 40.9437
1555 3 17.307 22.1149 22.0537 -27.8639 20.2075 -26.3835
ITEM: TIMESTEP
60600
ITEM: NUMBER OF ATOMS
2
ITEM: BOX BOUNDS pp pp pp
4.8041626931619152e+00 3.0201837306838144e+01
4.8041626931619152e+00 3.0201837306838144e+01
4.8041626931619152e+00 3.0201837306838144e+01
ITEM: ATOMS id type x y z fx fy fz
1556 4 21.6399 19.5519 5.28171 -27.3812 -9.58135 26.8382
1555 3 17.2997 22.1217 22.0566 -26.6186 19.5477 -23.3139
ITEM: TIMESTEP
60610
ITEM: NUMBER OF ATOMS
2
ITEM: BOX BOUNDS pp pp pp
4.8041850577270733e+00 3.0201814942272989e+01
4.8041850577270733e+00 3.0201814942272989e+01
4.8041850577270733e+00 3.0201814942272989e+01
ITEM: ATOMS id type x y z fx fy fz
1556 4 21.6465 19.5505 5.27998 0.24388 46.8809 27.1416
1555 3 17.2904 22.13 22.0578 -21.0474 16.4477 -12.211
ITEM: TIMESTEP
60620
ITEM: NUMBER OF ATOMS
2
ITEM: BOX BOUNDS pp pp pp
4.8042081729366828e+00 3.0201791827063381e+01
4.8042081729366828e+00 3.0201791827063381e+01
4.8042081729366828e+00 3.0201791827063381e+01
ITEM: ATOMS id type x y z fx fy fz
1556 4 21.6527 19.5522 5.28105 -11.6709 13.8167 50.7531
1555 3 17.2795 22.1394 22.0582 -12.1479 11.3422 4.99822
ITEM: TIMESTEP
60630
ITEM: NUMBER OF ATOMS
2
ITEM: BOX BOUNDS pp pp pp
4.8042355363760070e+00 3.0201764463624066e+01
4.8042355363760070e+00 3.0201764463624066e+01
4.8042355363760070e+00 3.0201764463624066e+01
ITEM: ATOMS id type x y z fx fy fz
1556 4 21.6579 19.5559 5.28513 -22.7152 29.1283 -60.5054
1555 3 17.2678 22.1496 22.059 -1.15225 4.68732 26.0532
ITEM: TIMESTEP
60640
ITEM: NUMBER OF ATOMS
2
ITEM: BOX BOUNDS pp pp pp
4.8042708859544696e+00 3.0201729114045598e+01
4.8042708859544696e+00 3.0201729114045598e+01
4.8042708859544696e+00 3.0201729114045598e+01
ITEM: ATOMS id type x y z fx fy fz
1556 4 21.6614 19.5611 5.28546 6.44741 -32.4996 -22.3358
1555 3 17.256 22.1602 22.0616 4.82713 0.393225 37.1795
ITEM: TIMESTEP
60650
ITEM: NUMBER OF ATOMS
2
ITEM: BOX BOUNDS pp pp pp
4.8043160566061420e+00 3.0201683943393945e+01
4.8043160566061420e+00 3.0201683943393945e+01
4.8043160566061420e+00 3.0201683943393945e+01
ITEM: ATOMS id type x y z fx fy fz
1556 4 21.6657 19.5645 5.28291 41.7842 -6.53659 -60.8066
1555 3 17.2445 22.1708 22.0668 7.17448 -2.44796 41.1536
ITEM: TIMESTEP
60660
ITEM: NUMBER OF ATOMS
2
ITEM: BOX BOUNDS pp pp pp
4.8043713206793246e+00 3.0201628679320763e+01
4.8043713206793246e+00 3.0201628679320763e+01
4.8043713206793246e+00 3.0201628679320763e+01
ITEM: ATOMS id type x y z fx fy fz
1556 4 21.6726 19.5666 5.27542 -26.0518 -35.8627 -67.8161
1555 3 17.2335 22.1813 22.0751 4.62694 -2.90387 35.3994
ITEM: TIMESTEP
60670
ITEM: NUMBER OF ATOMS
2
ITEM: BOX BOUNDS pp pp pp
4.8044353806764857e+00 3.0201564619323591e+01
4.8044353806764857e+00 3.0201564619323591e+01
4.8044353806764857e+00 3.0201564619323591e+01
ITEM: ATOMS id type x y z fx fy fz
1556 4 21.6783 19.5665 5.26259 17.754 19.6345 3.04033
1555 3 17.2228 22.1916 22.0858 -3.79331 -0.0202278 17.9229
ITEM: TIMESTEP
60680
ITEM: NUMBER OF ATOMS
2
ITEM: BOX BOUNDS pp pp pp
4.8045052281304415e+00 3.0201494771869633e+01
4.8045052281304415e+00 3.0201494771869633e+01
4.8045052281304415e+00 3.0201494771869633e+01
ITEM: ATOMS id type x y z fx fy fz
1556 4 21.6846 19.5675 5.24963 -31.9564 17.6646 26.5994
1555 3 17.2118 22.2019 22.0978 -12.8314 3.6258 -1.38548
ITEM: TIMESTEP
60690
ITEM: NUMBER OF ATOMS
2
ITEM: BOX BOUNDS pp pp pp
4.8045776971168426e+00 3.0201422302883238e+01
4.8045776971168426e+00 3.0201422302883238e+01
4.8045776971168426e+00 3.0201422302883238e+01
ITEM: ATOMS id type x y z fx fy fz
1556 4 21.6885 19.5704 5.23888 -26.0377 33.9096 25.2385
1555 3 17.1999 22.2124 22.1097 -20.421 7.15735 -18.8141
ITEM: TIMESTEP
60700
ITEM: NUMBER OF ATOMS
2
ITEM: BOX BOUNDS pp pp pp
4.8046502895235985e+00 3.0201349710476475e+01
4.8046502895235985e+00 3.0201349710476475e+01
4.8046502895235985e+00 3.0201349710476475e+01
ITEM: ATOMS id type x y z fx fy fz
1556 4 21.6905 19.5758 5.23069 12.9758 -3.62581 60.5975
1555 3 17.1865 22.2235 22.1203 -25.0328 9.8055 -31.5881
ITEM: TIMESTEP
60710
ITEM: NUMBER OF ATOMS
2
ITEM: BOX BOUNDS pp pp pp
4.8047216399024002e+00 3.0201278360097675e+01
4.8047216399024002e+00 3.0201278360097675e+01
4.8047216399024002e+00 3.0201278360097675e+01
ITEM: ATOMS id type x y z fx fy fz
1556 4 21.6933 19.581 5.22729 26.5318 -25.5909 33.2626
1555 3 17.1713 22.2353 22.1287 -22.3147 8.93889 -31.4664
ITEM: TIMESTEP
60720
ITEM: NUMBER OF ATOMS
2
ITEM: BOX BOUNDS pp pp pp
4.8047925462866452e+00 3.0201207453713430e+01
4.8047925462866452e+00 3.0201207453713430e+01
4.8047925462866452e+00 3.0201207453713430e+01
ITEM: ATOMS id type x y z fx fy fz
1556 4 21.6985 19.5841 5.22648 24.8023 -28.6938 -21.2361
1555 3 17.1546 22.2477 22.1348 -13.1929 4.89149 -20.0885
ITEM: TIMESTEP
60730
ITEM: NUMBER OF ATOMS
2
ITEM: BOX BOUNDS pp pp pp
4.8048655864699885e+00 3.0201134413530088e+01
4.8048655864699885e+00 3.0201134413530088e+01
4.8048655864699885e+00 3.0201134413530088e+01
ITEM: ATOMS id type x y z fx fy fz
1556 4 21.7059 19.5843 5.22461 32.7934 -52.8036 13.6068
1555 3 17.1368 22.2605 22.1395 -1.42588 -0.390311 -4.37913
ITEM: TIMESTEP
60740
ITEM: NUMBER OF ATOMS
2
ITEM: BOX BOUNDS pp pp pp
4.8049441130439448e+00 3.0201055886956137e+01
4.8049441130439448e+00 3.0201055886956137e+01
4.8049441130439448e+00 3.0201055886956137e+01
ITEM: ATOMS id type x y z fx fy fz
1556 4 21.7162 19.5807 5.22324 19.2663 9.00378 -19.3904
1555 3 17.119 22.2732 22.144 13.1789 -7.25914 16.0034
ITEM: TIMESTEP
60750
ITEM: NUMBER OF ATOMS
2
ITEM: BOX BOUNDS pp pp pp
4.8050321318555049e+00 3.0200967868144581e+01
4.8050321318555049e+00 3.0200967868144581e+01
4.8050321318555049e+00 3.0200967868144581e+01
ITEM: ATOMS id type x y z fx fy fz
1556 4 21.7274 19.5771 5.22035 -65.5275 9.85204 -32.9714
1555 3 17.1021 22.2854 22.1495 25.5443 -12.9232 31.5871
ITEM: TIMESTEP
60760
ITEM: NUMBER OF ATOMS
2
ITEM: BOX BOUNDS pp pp pp
4.8051327119016758e+00 3.0200867288098408e+01
4.8051327119016758e+00 3.0200867288098408e+01
4.8051327119016758e+00 3.0200867288098408e+01
ITEM: ATOMS id type x y z fx fy fz
1556 4 21.7344 19.575 5.2152 -0.259584 56.5415 22.6922
1555 3 17.087 22.2967 22.1573 31.1453 -14.8795 34.1261
ITEM: TIMESTEP
60770
ITEM: NUMBER OF ATOMS
2
ITEM: BOX BOUNDS pp pp pp
4.8052468154744066e+00 3.0200753184525681e+01
4.8052468154744066e+00 3.0200753184525681e+01
4.8052468154744066e+00 3.0200753184525681e+01
ITEM: ATOMS id type x y z fx fy fz
1556 4 21.7399 19.5771 5.21125 -59.84 15.3644 -16.724
1555 3 17.0742 22.3069 22.1675 32.7586 -14.8221 28.7667
ITEM: TIMESTEP
60780
ITEM: NUMBER OF ATOMS
2
ITEM: BOX BOUNDS pp pp pp
4.8053740814069617e+00 3.0200625918593119e+01
4.8053740814069617e+00 3.0200625918593119e+01
4.8053740814069617e+00 3.0200625918593119e+01
ITEM: ATOMS id type x y z fx fy fz
1556 4 21.7414 19.5812 5.20603 -0.450845 22.7416 -36.4069
1555 3 17.0637 22.3161 22.1798 28.0491 -11.4829 11.577
ITEM: TIMESTEP
60790
ITEM: NUMBER OF ATOMS
2
ITEM: BOX BOUNDS pp pp pp
4.8055121760690778e+00 3.0200487823930999e+01
4.8055121760690778e+00 3.0200487823930999e+01
4.8055121760690778e+00 3.0200487823930999e+01
ITEM: ATOMS id type x y z fx fy fz
1556 4 21.7424 19.5864 5.19849 41.3831 -48.6104 29.1992
1555 3 17.0552 22.3245 22.1928 19.0686 -6.09216 -13.1088
ITEM: TIMESTEP
60800
ITEM: NUMBER OF ATOMS
2
ITEM: BOX BOUNDS pp pp pp
4.8056574237462115e+00 3.0200342576253874e+01
4.8056574237462115e+00 3.0200342576253874e+01
4.8056574237462115e+00 3.0200342576253874e+01
ITEM: ATOMS id type x y z fx fy fz
1556 4 21.7468 19.5885 5.19223 32.7048 -9.6813 -32.8692
1555 3 17.0481 22.3324 22.205 12.7871 -2.71351 -31.7501
ITEM: TIMESTEP
60810
ITEM: NUMBER OF ATOMS
2
ITEM: BOX BOUNDS pp pp pp
4.8058068726549905e+00 3.0200193127345091e+01
4.8058068726549905e+00 3.0200193127345091e+01
4.8058068726549905e+00 3.0200193127345091e+01
ITEM: ATOMS id type x y z fx fy fz