ITEM: TIMESTEP
60000
ITEM: NUMBER OF ATOMS
2
ITEM: BOX BOUNDS pp pp pp
4.8373590269471567e+00 3.0168640973053272e+01
4.8373590269471567e+00 3.0168640973053272e+01
4.8373590269471567e+00 3.0168640973053272e+01
ITEM: ATOMS id type x y z fx fy fz
1556 4 23.4885 18.7474 7.82598 86.1474 19.7226 48.0453
1555 3 16.173 14.7966 27.6655 -55.5388 -31.2838 -52.6677
ITEM: TIMESTEP
60010
ITEM: NUMBER OF ATOMS
2
ITEM: BOX BOUNDS pp pp pp
4.8371130930499220e+00 3.0168886906950512e+01
4.8371130930499220e+00 3.0168886906950512e+01
4.8371130930499220e+00 3.0168886906950512e+01
ITEM: ATOMS id type x y z fx fy fz
1556 4 23.4952 18.7589 7.83873 57.0964 24.2669 -44.7954
1555 3 16.1735 14.8067 27.6758 -45.2677 -26.9266 -45.6104
ITEM: TIMESTEP
60020
ITEM: NUMBER OF ATOMS
2
ITEM: BOX BOUNDS pp pp pp
4.8368510374609563e+00 3.0169148962539474e+01
4.8368510374609563e+00 3.0169148962539474e+01
4.8368510374609563e+00 3.0169148962539474e+01
ITEM: ATOMS id type x y z fx fy fz
1556 4 23.5075 18.7722 7.84858 83.4107 -10.8225 -13.9992
1555 3 16.1707 14.8149 27.6828 -22.7005 -15.4358 -29.4969
ITEM: TIMESTEP
60030
ITEM: NUMBER OF ATOMS
2
ITEM: BOX BOUNDS pp pp pp
4.8365778168271785e+00 3.0169422183173246e+01
4.8365778168271785e+00 3.0169422183173246e+01
4.8365778168271785e+00 3.0169422183173246e+01
ITEM: ATOMS id type x y z fx fy fz
1556 4 23.5264 18.7844 7.85691 22.8584 -43.8833 -3.07951
1555 3 16.1663 14.822 27.6878 9.36071 1.60231 -6.31974
ITEM: TIMESTEP
60040
ITEM: NUMBER OF ATOMS
2
ITEM: BOX BOUNDS pp pp pp
4.8363004746348857e+00 3.0169699525365548e+01
4.8363004746348857e+00 3.0169699525365548e+01
4.8363004746348857e+00 3.0169699525365548e+01
ITEM: ATOMS id type x y z fx fy fz
1556 4 23.5472 18.7937 7.86439 -84.3819 21.0834 -43.778
1555 3 16.1626 14.8292 27.6923 40.5175 18.4994 16.2309
ITEM: TIMESTEP
60050
ITEM: NUMBER OF ATOMS
2
ITEM: BOX BOUNDS pp pp pp
4.8360260362308356e+00 3.0169973963769607e+01
4.8360260362308356e+00 3.0169973963769607e+01
4.8360260362308356e+00 3.0169973963769607e+01
ITEM: ATOMS id type x y z fx fy fz
1556 4 23.5611 18.8037 7.86894 -105.544 -22.3197 28.3929
1555 3 16.1618 14.8377 27.6979 57.1967 28.0207 28.1875
ITEM: TIMESTEP
60060
ITEM: NUMBER OF ATOMS
2
ITEM: BOX BOUNDS pp pp pp
4.8357588712548694e+00 3.0170241128745573e+01
4.8357588712548694e+00 3.0170241128745573e+01
4.8357588712548694e+00 3.0170241128745573e+01
ITEM: ATOMS id type x y z fx fy fz
1556 4 23.5663 18.8121 7.87551 -86.8764 -35.7947 30.5944
1555 3 16.165 14.8482 27.7055 57.2528 29.066 28.1717
ITEM: TIMESTEP
60070
ITEM: NUMBER OF ATOMS
2
ITEM: BOX BOUNDS pp pp pp
4.8355003479492993e+00 3.0170499652051141e+01
4.8355003479492993e+00 3.0170499652051141e+01
4.8355003479492993e+00 3.0170499652051141e+01
ITEM: ATOMS id type x y z fx fy fz
1556 4 23.5635 18.8181 7.88361 -68.3775 22.1078 -83.8249
1555 3 16.1723 14.8607 27.7151 40.6648 21.5733 16.238
ITEM: TIMESTEP
60080
ITEM: NUMBER OF ATOMS
2
ITEM: BOX BOUNDS pp pp pp
4.8352484529053061e+00 3.0170751547095133e+01
4.8352484529053061e+00 3.0170751547095133e+01
4.8352484529053061e+00 3.0170751547095133e+01
ITEM: ATOMS id type x y z fx fy fz
1556 4 23.5556 18.8245 7.88626 46.8259 -69.0367 0.843618
1555 3 16.1825 14.8748 27.7258 8.9295 6.22365 -6.56664
ITEM: TIMESTEP
60090
ITEM: NUMBER OF ATOMS
2
ITEM: BOX BOUNDS pp pp pp
4.8349979435994026e+00 3.0171002056401036e+01
4.8349979435994026e+00 3.0171002056401036e+01
4.8349979435994026e+00 3.0171002056401036e+01
ITEM: ATOMS id type x y z fx fy fz
1556 4 23.5511 18.8264 7.88791 78.1057 -4.49437 -24.172
1555 3 16.1933 14.8893 27.736 -23.3589 -9.33632 -29.3336
ITEM: TIMESTEP
60100
ITEM: NUMBER OF ATOMS
2
ITEM: BOX BOUNDS pp pp pp
4.8347432341071048e+00 3.0171256765893339e+01
4.8347432341071048e+00 3.0171256765893339e+01
4.8347432341071048e+00 3.0171256765893339e+01
ITEM: ATOMS id type x y z fx fy fz
1556 4 23.5528 18.8274 7.88744 41.782 23.915 -41.4914
1555 3 16.2024 14.9032 27.7441 -47.5357 -20.5522 -45.5613
ITEM: TIMESTEP
60110
ITEM: NUMBER OF ATOMS
2
ITEM: BOX BOUNDS pp pp pp
4.8344802849237407e+00 3.0171519715076705e+01
4.8344802849237407e+00 3.0171519715076705e+01
4.8344802849237407e+00 3.0171519715076705e+01
ITEM: ATOMS id type x y z fx fy fz
1556 4 23.5592 18.8303 7.88481 85.5854 11.1822 92.6265
1555 3 16.2082 14.9156 27.7489 -60.0776 -25.6763 -52.647
ITEM: TIMESTEP
60120
ITEM: NUMBER OF ATOMS
2
ITEM: BOX BOUNDS pp pp pp
4.8342074291408803e+00 3.0171792570859562e+01
4.8342074291408803e+00 3.0171792570859562e+01
4.8342074291408803e+00 3.0171792570859562e+01
ITEM: ATOMS id type x y z fx fy fz
1556 4 23.5714 18.8341 7.88866 -22.7301 6.12629 56.6043
1555 3 16.2097 14.9262 27.7501 -51.5878 -19.8275 -43.7615
ITEM: TIMESTEP
60130
ITEM: NUMBER OF ATOMS
2
ITEM: BOX BOUNDS pp pp pp
4.8339265695049090e+00 3.0172073430495526e+01
4.8339265695049090e+00 3.0172073430495526e+01
4.8339265695049090e+00 3.0172073430495526e+01
ITEM: ATOMS id type x y z fx fy fz
1556 4 23.5829 18.8395 7.898 -39.2459 84.7563 50.9851
1555 3 16.2076 14.9354 27.7481 -30.8975 -7.86044 -25.6699
ITEM: TIMESTEP
60140
ITEM: NUMBER OF ATOMS
2
ITEM: BOX BOUNDS pp pp pp
4.8336420661369708e+00 3.0172357933863474e+01
4.8336420661369708e+00 3.0172357933863474e+01
4.8336420661369708e+00 3.0172357933863474e+01
ITEM: ATOMS id type x y z fx fy fz
1556 4 23.5906 18.8501 7.91161 -54.8094 -48.9631 51.6579
1555 3 16.2032 14.9441 27.7442 -3.38975 7.32226 -2.5081
ITEM: TIMESTEP
60150
ITEM: NUMBER OF ATOMS
2
ITEM: BOX BOUNDS pp pp pp
4.8333596992587591e+00 3.0172640300741683e+01
4.8333596992587591e+00 3.0172640300741683e+01
4.8333596992587591e+00 3.0172640300741683e+01
ITEM: ATOMS id type x y z fx fy fz
1556 4 23.5944 18.8582 7.92937 -4.45403 -10.8587 -20.4552
1555 3 16.1986 14.9533 27.7402 22.208 21.1139 19.1109
ITEM: TIMESTEP
60160
ITEM: NUMBER OF ATOMS
2
ITEM: BOX BOUNDS pp pp pp
4.8330851694952202e+00 3.0172914830505221e+01
4.8330851694952202e+00 3.0172914830505221e+01
4.8330851694952202e+00 3.0172914830505221e+01
ITEM: ATOMS id type x y z fx fy fz
1556 4 23.5971 18.8646 7.94458 -16.3816 -27.7802 -136.144
1555 3 16.1956 14.964 27.7375 40.0744 30.4362 34.6324
ITEM: TIMESTEP
60170
ITEM: NUMBER OF ATOMS
2
ITEM: BOX BOUNDS pp pp pp
4.8328226608608595e+00 3.0173177339139585e+01
4.8328226608608595e+00 3.0173177339139585e+01
4.8328226608608595e+00 3.0173177339139585e+01
ITEM: ATOMS id type x y z fx fy fz
1556 4 23.5992 18.8681 7.95001 44.6824 -97.9271 -26.217
1555 3 16.1953 14.9768 27.7373 41.5759 30.7401 37.3264
ITEM: TIMESTEP
60180
ITEM: NUMBER OF ATOMS
2
ITEM: BOX BOUNDS pp pp pp
4.8325734465558661e+00 3.0173426553444564e+01
4.8325734465558661e+00 3.0173426553444564e+01
4.8325734465558661e+00 3.0173426553444564e+01
ITEM: ATOMS id type x y z fx fy fz
1556 4 23.6039 18.8644 7.9514 -33.7676 -10.8153 -84.639
1555 3 16.198 14.9919 27.7397 32.0416 24.8257 31.1408
ITEM: TIMESTEP
60190
ITEM: NUMBER OF ATOMS
2
ITEM: BOX BOUNDS pp pp pp
4.8323363601150930e+00 3.0173663639885326e+01
4.8323363601150930e+00 3.0173663639885326e+01
4.8323363601150930e+00 3.0173663639885326e+01
ITEM: ATOMS id type x y z fx fy fz
1556 4 23.6062 18.8592 7.94657 -47.3867 12.2004 -19.5741
1555 3 16.203 15.0087 27.7443 8.91261 11.4887 14.2065
ITEM: TIMESTEP
60200
ITEM: NUMBER OF ATOMS
2
ITEM: BOX BOUNDS pp pp pp
4.8321068999062433e+00 3.0173893100094169e+01
4.8321068999062433e+00 3.0173893100094169e+01
4.8321068999062433e+00 3.0173893100094169e+01
ITEM: ATOMS id type x y z fx fy fz
1556 4 23.6046 18.8545 7.94041 -16.898 -23.0618 84.5893
1555 3 16.2086 15.0264 27.7499 -20.691 -5.47073 -8.03219
ITEM: TIMESTEP
60210
ITEM: NUMBER OF ATOMS
2
ITEM: BOX BOUNDS pp pp pp
4.8318785569050142e+00 3.0174121443095387e+01
4.8318785569050142e+00 3.0174121443095387e+01
4.8318785569050142e+00 3.0174121443095387e+01
ITEM: ATOMS id type x y z fx fy fz
1556 4 23.6011 18.8488 7.94021 -27.9448 57.4448 24.1618
1555 3 16.2127 15.0436 27.7549 -45.3363 -20.0895 -27.0268
ITEM: TIMESTEP
60220
ITEM: NUMBER OF ATOMS
2
ITEM: BOX BOUNDS pp pp pp
4.8316454515220020e+00 3.0174354548478405e+01
4.8316454515220020e+00 3.0174354548478405e+01
4.8316454515220020e+00 3.0174354548478405e+01
ITEM: ATOMS id type x y z fx fy fz
1556 4 23.5957 18.8475 7.94295 24.9187 54.7073 35.613
1555 3 16.2136 15.0595 27.758 -60.4678 -30.0191 -39.4473
ITEM: TIMESTEP
60230
ITEM: NUMBER OF ATOMS
2
ITEM: BOX BOUNDS pp pp pp
4.8314035241227486e+00 3.0174596475877664e+01
4.8314035241227486e+00 3.0174596475877664e+01
4.8314035241227486e+00 3.0174596475877664e+01
ITEM: ATOMS id type x y z fx fy fz
1556 4 23.5924 18.8503 7.94882 72.6082 -22.2845 54.6051
1555 3 16.2102 15.0732 27.7583 -59.5286 -31.8679 -40.3979
ITEM: TIMESTEP
60240
ITEM: NUMBER OF ATOMS
2
ITEM: BOX BOUNDS pp pp pp
4.8311517997496871e+00 3.0174848200250725e+01
4.8311517997496871e+00 3.0174848200250725e+01
4.8311517997496871e+00 3.0174848200250725e+01
ITEM: ATOMS id type x y z fx fy fz
1556 4 23.5952 18.8525 7.95869 80.3198 36.9601 -25.3895
1555 3 16.2025 15.0846 27.7558 -39.9624 -24.2529 -27.8953
ITEM: TIMESTEP
60250
ITEM: NUMBER OF ATOMS
2
ITEM: BOX BOUNDS pp pp pp
4.8308932934961479e+00 3.0175106706504266e+01
4.8308932934961479e+00 3.0175106706504266e+01
4.8308932934961479e+00 3.0175106706504266e+01
ITEM: ATOMS id type x y z fx fy fz
1556 4 23.6048 18.857 7.9666 33.8417 0.597982 -53.7919
1555 3 16.192 15.0944 27.7513 -7.24936 -9.95188 -5.92504
ITEM: TIMESTEP
60260
ITEM: NUMBER OF ATOMS
2
ITEM: BOX BOUNDS pp pp pp
4.8306344051607937e+00 3.0175365594839626e+01
4.8306344051607937e+00 3.0175365594839626e+01
4.8306344051607937e+00 3.0175365594839626e+01
ITEM: ATOMS id type x y z fx fy fz
1556 4 23.6176 18.8613 7.97087 -3.472 -55.3656 31.6949
1555 3 16.181 15.1034 27.7464 27.388 5.4035 17.2021
ITEM: TIMESTEP
60270
ITEM: NUMBER OF ATOMS
2
ITEM: BOX BOUNDS pp pp pp
4.8303828402693032e+00 3.0175617159731111e+01
4.8303828402693032e+00 3.0175617159731111e+01
4.8303828402693032e+00 3.0175617159731111e+01
ITEM: ATOMS id type x y z fx fy fz
1556 4 23.6294 18.862 7.9761 -109.858 24.2063 -68.3789
1555 3 16.172 15.1128 27.7427 56.2071 18.0138 35.9157
ITEM: TIMESTEP
60280
ITEM: NUMBER OF ATOMS
2
ITEM: BOX BOUNDS pp pp pp
4.8301453853024068e+00 3.0175854614698011e+01
4.8301453853024068e+00 3.0175854614698011e+01
4.8301453853024068e+00 3.0175854614698011e+01
ITEM: ATOMS id type x y z fx fy fz
1556 4 23.6327 18.8638 7.97689 -89.494 -11.5514 -10.5695
1555 3 16.1669 15.1234 27.7415 64.9077 20.9406 39.7804
ITEM: TIMESTEP
60290
ITEM: NUMBER OF ATOMS
2
ITEM: BOX BOUNDS pp pp pp
4.8299246655010606e+00 3.0176075334499359e+01
4.8299246655010606e+00 3.0176075334499359e+01
4.8299246655010606e+00 3.0176075334499359e+01
ITEM: ATOMS id type x y z fx fy fz
1556 4 23.6281 18.8642 7.97618 -53.818 -70.3108 -3.54773
1555 3 16.1664 15.1355 27.7431 53.8793 14.5723 29.3361
ITEM: TIMESTEP
60300
ITEM: NUMBER OF ATOMS
2
ITEM: BOX BOUNDS pp pp pp
4.8297185509050617e+00 3.0176281449095363e+01
4.8297185509050617e+00 3.0176281449095363e+01
4.8297185509050617e+00 3.0176281449095363e+01
ITEM: ATOMS id type x y z fx fy fz
1556 4 23.6189 18.8602 7.97459 -3.29532 43.7653 -74.4609
1555 3 16.1698 15.1487 27.7467 27.3455 1.1019 7.84648
ITEM: TIMESTEP
60310
ITEM: NUMBER OF ATOMS
2
ITEM: BOX BOUNDS pp pp pp
4.8295209035033348e+00 3.0176479096497090e+01
4.8295209035033348e+00 3.0176479096497090e+01
4.8295209035033348e+00 3.0176479096497090e+01
ITEM: ATOMS id type x y z fx fy fz
1556 4 23.6093 18.8581 7.96739 55.5615 -34.4675 -27.8141
1555 3 16.1751 15.1619 27.7509 -6.48087 -15.317 -18.5213
ITEM: TIMESTEP
60320
ITEM: NUMBER OF ATOMS
2
ITEM: BOX BOUNDS pp pp pp
4.8293235149772258e+00 3.0176676485023208e+01
4.8293235149772258e+00 3.0176676485023208e+01
4.8293235149772258e+00 3.0176676485023208e+01
ITEM: ATOMS id type x y z fx fy fz
1556 4 23.6047 18.8541 7.95812 106.963 -9.59965 43.1268
1555 3 16.18 15.174 27.7538 -35.7622 -28.849 -40.8309
ITEM: TIMESTEP
60330
ITEM: NUMBER OF ATOMS
2
ITEM: BOX BOUNDS pp pp pp
4.8291191675321770e+00 3.0176880832468257e+01
4.8291191675321770e+00 3.0176880832468257e+01
4.8291191675321770e+00 3.0176880832468257e+01
ITEM: ATOMS id type x y z fx fy fz
1556 4 23.6082 18.8494 7.95115 30.7718 47.5715 -29.4389
1555 3 16.1823 15.184 27.7537 -48.5617 -33.6771 -50.1573
ITEM: TIMESTEP
60340
ITEM: NUMBER OF ATOMS
2
ITEM: BOX BOUNDS pp pp pp
4.8289039928023900e+00 3.0177096007198045e+01
4.8289039928023900e+00 3.0177096007198045e+01
4.8289039928023900e+00 3.0177096007198045e+01
ITEM: ATOMS id type x y z fx fy fz
1556 4 23.6152 18.8484 7.94347 13.0011 35.9687 87.8501
1555 3 16.1812 15.1917 27.7501 -47.948 -31.5705 -48.8476
ITEM: TIMESTEP
60350
ITEM: NUMBER OF ATOMS
2
ITEM: BOX BOUNDS pp pp pp
4.8286773274316239e+00 3.0177322672568813e+01
4.8286773274316239e+00 3.0177322672568813e+01
4.8286773274316239e+00 3.0177322672568813e+01
ITEM: ATOMS id type x y z fx fy fz
1556 4 23.6228 18.8503 7.94263 -40.2368 8.97141 105.199
1555 3 16.1767 15.1971 27.7431 -31.4105 -21.5079 -35.12
ITEM: TIMESTEP
60360
ITEM: NUMBER OF ATOMS
2
ITEM: BOX BOUNDS pp pp pp
4.8284423306152497e+00 3.0177557669385187e+01
4.8284423306152497e+00 3.0177557669385187e+01
4.8284423306152497e+00 3.0177557669385187e+01
ITEM: ATOMS id type x y z fx fy fz
1556 4 23.627 18.8539 7.9497 -75.1852 56.297 -25.4506
1555 3 16.17 15.201 27.7335 -5.62241 -6.94201 -13.9154
ITEM: TIMESTEP
60370
ITEM: NUMBER OF ATOMS
2
ITEM: BOX BOUNDS pp pp pp
4.8282051112085611e+00 3.0177794888791873e+01
4.8282051112085611e+00 3.0177794888791873e+01
4.8282051112085611e+00 3.0177794888791873e+01
ITEM: ATOMS id type x y z fx fy fz
1556 4 23.6257 18.8611 7.95634 11.6703 -39.9687 23.4592
1555 3 16.1629 15.2043 27.7229 17.3927 6.13294 5.83164
ITEM: TIMESTEP
60380
ITEM: NUMBER OF ATOMS
2
ITEM: BOX BOUNDS pp pp pp
4.8279721160929832e+00 3.0178027883907454e+01
4.8279721160929832e+00 3.0178027883907454e+01
4.8279721160929832e+00 3.0178027883907454e+01
ITEM: ATOMS id type x y z fx fy fz
1556 4 23.6248 18.8656 7.96367 31.2093 -45.7609 -63.6501
1555 3 16.157 15.2081 27.7127 37.9595 17.7728 24.2196
ITEM: TIMESTEP
60390
ITEM: NUMBER OF ATOMS
2
ITEM: BOX BOUNDS pp pp pp
4.8277491766607294e+00 3.0178250823339699e+01
4.8277491766607294e+00 3.0178250823339699e+01
4.8277491766607294e+00 3.0178250823339699e+01
ITEM: ATOMS id type x y z fx fy fz
1556 4 23.6261 18.8662 7.96548 -10.9111 -32.3098 -138.462
1555 3 16.1538 15.2132 27.7042 49.4495 24.6213 35.9573
ITEM: TIMESTEP
60400
ITEM: NUMBER OF ATOMS
2
ITEM: BOX BOUNDS pp pp pp
4.8275398731260957e+00 3.0178460126874327e+01
4.8275398731260957e+00 3.0178460126874327e+01
4.8275398731260957e+00 3.0178460126874327e+01
ITEM: ATOMS id type x y z fx fy fz
1556 4 23.6273 18.8634 7.95684 20.8553 -70.3237 -14.3024
1555 3 16.1541 15.22 27.6983 43.2725 22.464 34.2281
ITEM: TIMESTEP
60410
ITEM: NUMBER OF ATOMS
2
ITEM: BOX BOUNDS pp pp pp
4.8273436411986310e+00 3.0178656358801781e+01
4.8273436411986310e+00 3.0178656358801781e+01
4.8273436411986310e+00 3.0178656358801781e+01
ITEM: ATOMS id type x y z fx fy fz
1556 4 23.6294 18.8553 7.94579 -36.7734 -17.0497 -15.4221
1555 3 16.1575 15.2284 27.6947 27.0542 15.0576 24.5579
ITEM: TIMESTEP
60420
ITEM: NUMBER OF ATOMS
2
ITEM: BOX BOUNDS pp pp pp
4.8271566684134370e+00 3.0178843331586982e+01
4.8271566684134370e+00 3.0178843331586982e+01
4.8271566684134370e+00 3.0178843331586982e+01
ITEM: ATOMS id type x y z fx fy fz
1556 4 23.6282 18.8453 7.93329 -89.7716 1.87306 -26.4944
1555 3 16.1628 15.2379 27.6929 0.903314 2.53615 6.85925
ITEM: TIMESTEP
60430
ITEM: NUMBER OF ATOMS
2
ITEM: BOX BOUNDS pp pp pp
4.8269720297336551e+00 3.0179027970266773e+01
4.8269720297336551e+00 3.0179027970266773e+01
4.8269720297336551e+00 3.0179027970266773e+01
ITEM: ATOMS id type x y z fx fy fz
1556 4 23.6203 18.8355 7.91998 -10.0316 15.5202 121.404
1555 3 16.1681 15.2475 27.6916 -33.3535 -14.2201 -17.6513
ITEM: TIMESTEP
60440
ITEM: NUMBER OF ATOMS
2
ITEM: BOX BOUNDS pp pp pp
4.8267810377647553e+00 3.0179218962235666e+01
4.8267810377647553e+00 3.0179218962235666e+01
4.8267810377647553e+00 3.0179218962235666e+01
ITEM: ATOMS id type x y z fx fy fz
1556 4 23.6108 18.8271 7.91545 0.0536313 30.4902 54.5359
1555 3 16.171 15.2561 27.689 -56.4734 -26.0514 -34.7313
ITEM: TIMESTEP
60450
ITEM: NUMBER OF ATOMS
2
ITEM: BOX BOUNDS pp pp pp
4.8265775081536120e+00 3.0179422491846811e+01
4.8265775081536120e+00 3.0179422491846811e+01
4.8265775081536120e+00 3.0179422491846811e+01
ITEM: ATOMS id type x y z fx fy fz
1556 4 23.6015 18.8212 7.91575 48.3869 28.2253 -11.6733
1555 3 16.17 15.2629 27.684 -65.1701 -31.5654 -41.9455
ITEM: TIMESTEP
60460
ITEM: NUMBER OF ATOMS
2
ITEM: BOX BOUNDS pp pp pp
4.8263589182808566e+00 3.0179641081719573e+01
4.8263589182808566e+00 3.0179641081719573e+01
4.8263589182808566e+00 3.0179641081719573e+01
ITEM: ATOMS id type x y z fx fy fz
1556 4 23.597 18.8176 7.9166 141.942 -5.09308 78.5353
1555 3 16.1643 15.2675 27.676 -56.5252 -29.5385 -36.9324
ITEM: TIMESTEP
60470
ITEM: NUMBER OF ATOMS
2
ITEM: BOX BOUNDS pp pp pp
4.8261272948904299e+00 3.0179872705110007e+01
4.8261272948904299e+00 3.0179872705110007e+01
4.8261272948904299e+00 3.0179872705110007e+01
ITEM: ATOMS id type x y z fx fy fz
1556 4 23.6033 18.814 7.92225 49.5965 9.69605 -44.4777
1555 3 16.1546 15.2699 27.6654 -22.5726 -16.3193 -13.5001
ITEM: TIMESTEP
60480
ITEM: NUMBER OF ATOMS
2
ITEM: BOX BOUNDS pp pp pp
4.8258904060276731e+00 3.0180109593972773e+01
4.8258904060276731e+00 3.0180109593972773e+01
4.8258904060276731e+00 3.0180109593972773e+01
ITEM: ATOMS id type x y z fx fy fz
1556 4 23.6142 18.8108 7.92543 -21.6904 -17.5061 -20.1506
1555 3 16.1433 15.2712 27.6539 19.3885 -0.165705 15.5484
ITEM: TIMESTEP
60490
ITEM: NUMBER OF ATOMS
2
ITEM: BOX BOUNDS pp pp pp
4.8256581762267832e+00 3.0180341823773659e+01
4.8256581762267832e+00 3.0180341823773659e+01
4.8256581762267832e+00 3.0180341823773659e+01
ITEM: ATOMS id type x y z fx fy fz
1556 4 23.6239 18.8064 7.92719 -35.9788 -13.3263 52.8809
1555 3 16.1334 15.2724 27.6435 55.7417 13.0437 40.2415
ITEM: TIMESTEP
60500
ITEM: NUMBER OF ATOMS
2
ITEM: BOX BOUNDS pp pp pp
4.8254391667058378e+00 3.0180560833294603e+01
4.8254391667058378e+00 3.0180560833294603e+01
4.8254391667058378e+00 3.0180560833294603e+01
ITEM: ATOMS id type x y z fx fy fz
1556 4 23.6295 18.8005 7.93209 -129.281 -33.7107 -42.2222
1555 3 16.1275 15.2746 27.6359 79.9587 21.3786 56.0973
ITEM: TIMESTEP
60510
ITEM: NUMBER OF ATOMS
2
ITEM: BOX BOUNDS pp pp pp
4.8252390086112555e+00 3.0180760991389185e+01
4.8252390086112555e+00 3.0180760991389185e+01
4.8252390086112555e+00 3.0180760991389185e+01
ITEM: ATOMS id type x y z fx fy fz
1556 4 23.6251 18.7923 7.93418 -78.814 2.10528 -36.6185
1555 3 16.1273 15.2783 27.6323 74.9437 17.9265 50.5078
ITEM: TIMESTEP
60520
ITEM: NUMBER OF ATOMS
2
ITEM: BOX BOUNDS pp pp pp
4.8250574002844164e+00 3.0180942599716026e+01
4.8250574002844164e+00 3.0180942599716026e+01
4.8250574002844164e+00 3.0180942599716026e+01
ITEM: ATOMS id type x y z fx fy fz
1556 4 23.614 18.7832 7.93363 21.2019 -48.8736 28.4691
1555 3 16.1323 15.2832 27.6322 46.1634 5.36754 27.5257
ITEM: TIMESTEP
60530
ITEM: NUMBER OF ATOMS
2
ITEM: BOX BOUNDS pp pp pp
4.8248890816758507e+00 3.0181110918324592e+01
4.8248890816758507e+00 3.0181110918324592e+01
4.8248890816758507e+00 3.0181110918324592e+01
ITEM: ATOMS id type x y z fx fy fz
1556 4 23.6042 18.7711 7.93413 43.0177 14.7256 -68.5177
1555 3 16.1407 15.2885 27.6341 10.3858 -9.31707 -0.38783
ITEM: TIMESTEP
60540
ITEM: NUMBER OF ATOMS
2
ITEM: BOX BOUNDS pp pp pp
4.8247273104457165e+00 3.0181272689554724e+01
4.8247273104457165e+00 3.0181272689554724e+01
4.8247273104457165e+00 3.0181272689554724e+01
ITEM: ATOMS id type x y z fx fy fz
1556 4 23.5982 18.7593 7.92983 86.8195 -2.7276 -22.0243
1555 3 16.1498 15.2931 27.6359 -25.5474 -23.8037 -28.1669
ITEM: TIMESTEP
60550
ITEM: NUMBER OF ATOMS
2
ITEM: BOX BOUNDS pp pp pp
4.8245660048153294e+00 3.0181433995185120e+01
4.8245660048153294e+00 3.0181433995185120e+01
4.8245660048153294e+00 3.0181433995185120e+01
ITEM: ATOMS id type x y z fx fy fz
1556 4 23.5998 18.7478 7.92432 100.036 20.4912 95.2708
1555 3 16.1571 15.296 27.6358 -48.4122 -32.4085 -45.7836
ITEM: TIMESTEP
60560
ITEM: NUMBER OF ATOMS
2
ITEM: BOX BOUNDS pp pp pp
4.8244026592868909e+00 3.0181597340713552e+01
4.8244026592868909e+00 3.0181597340713552e+01
4.8244026592868909e+00 3.0181597340713552e+01
ITEM: ATOMS id type x y z fx fy fz
1556 4 23.6088 18.7381 7.9252 -39.7307 48.7214 6.02783
1555 3 16.1611 15.2967 27.6324 -47.821 -30.4562 -45.4243
ITEM: TIMESTEP
60570
ITEM: NUMBER OF ATOMS
2
ITEM: BOX BOUNDS pp pp pp
4.8242398691044492e+00 3.0181760130895995e+01
4.8242398691044492e+00 3.0181760130895995e+01
4.8242398691044492e+00 3.0181760130895995e+01
ITEM: ATOMS id type x y z fx fy fz
1556 4 23.6157 18.7323 7.92835 -32.7895 34.3738 91.9504
1555 3 16.1617 15.2951 27.6258 -36.9828 -24.0703 -37.1236
ITEM: TIMESTEP
60580
ITEM: NUMBER OF ATOMS
2
ITEM: BOX BOUNDS pp pp pp
4.8240829604126869e+00 3.0181917039587756e+01
4.8240829604126869e+00 3.0181917039587756e+01
4.8240829604126869e+00 3.0181917039587756e+01
ITEM: ATOMS id type x y z fx fy fz
1556 4 23.6196 18.7297 7.93872 -24.1817 23.7052 79.371
1555 3 16.1596 15.2918 27.6165 -14.9029 -12.6803 -20.0426
ITEM: TIMESTEP
60590
ITEM: NUMBER OF ATOMS
2
ITEM: BOX BOUNDS pp pp pp
4.8239396098046967e+00 3.0182060390195748e+01
4.8239396098046967e+00 3.0182060390195748e+01
4.8239396098046967e+00 3.0182060390195748e+01
ITEM: ATOMS id type x y z fx fy fz
1556 4 23.6208 18.729 7.95489 -63.4743 9.44756 -72.3331
1555 3 16.1565 15.2876 27.6058 13.2595 1.47219 2.12167
ITEM: TIMESTEP
60600
ITEM: NUMBER OF ATOMS
2
ITEM: BOX BOUNDS pp pp pp
4.8238181543376513e+00 3.0182181845662789e+01
4.8238181543376513e+00 3.0182181845662789e+01
4.8238181543376513e+00 3.0182181845662789e+01
ITEM: ATOMS id type x y z fx fy fz
1556 4 23.6177 18.7294 7.96629 20.6167 2.62511 -46.1003
1555 3 16.1543 15.2835 27.5952 31.8845 11.3039 17.5666
ITEM: TIMESTEP
60610
ITEM: NUMBER OF ATOMS
2
ITEM: BOX BOUNDS pp pp pp
4.8237240649054147e+00 3.0182275935095021e+01
4.8237240649054147e+00 3.0182275935095021e+01
4.8237240649054147e+00 3.0182275935095021e+01
ITEM: ATOMS id type x y z fx fy fz
1556 4 23.6158 18.7293 7.97325 46.6212 -47.8589 -57.2799
1555 3 16.1543 15.2803 27.5858 43.5737 18.035 28.2639
ITEM: TIMESTEP
60620
ITEM: NUMBER OF ATOMS
2
ITEM: BOX BOUNDS pp pp pp
4.8236602118919674e+00 3.0182339788108472e+01
4.8236602118919674e+00 3.0182339788108472e+01
4.8236602118919674e+00 3.0182339788108472e+01
ITEM: ATOMS id type x y z fx fy fz
1556 4 23.6174 18.7262 7.9744 -1.11589 8.13492 -149.938
1555 3 16.1575 15.2783 27.5784 46.4759 20.7456 32.7741
ITEM: TIMESTEP
60630
ITEM: NUMBER OF ATOMS
2
ITEM: BOX BOUNDS pp pp pp
4.8236270243710688e+00 3.0182372975629377e+01
4.8236270243710688e+00 3.0182372975629377e+01
4.8236270243710688e+00 3.0182372975629377e+01
ITEM: ATOMS id type x y z fx fy fz
1556 4 23.6193 18.7228 7.96418 -6.2733 -25.9973 -35.8662
1555 3 16.164 15.2777 27.5733 32.8275 15.7975 25.1436
ITEM: TIMESTEP
60640
ITEM: NUMBER OF ATOMS
2
ITEM: BOX BOUNDS pp pp pp
4.8236211638921791e+00 3.0182378836108263e+01
4.8236211638921791e+00 3.0182378836108263e+01
4.8236211638921791e+00 3.0182378836108263e+01
ITEM: ATOMS id type x y z fx fy fz
1556 4 23.6204 18.7178 7.95047 -37.7376 4.52701 35.3021
1555 3 16.1728 15.2783 27.5699 9.29224 6.17783 10.714
ITEM: TIMESTEP
60650
ITEM: NUMBER OF ATOMS
2
ITEM: BOX BOUNDS pp pp pp
4.8236369571203515e+00 3.0182363042880084e+01
4.8236369571203515e+00 3.0182363042880084e+01
4.8236369571203515e+00 3.0182363042880084e+01
ITEM: ATOMS id type x y z fx fy fz
1556 4 23.6177 18.7134 7.93865 -110.627 48.9407 -19.7477
1555 3 16.1823 15.2794 27.5673 -18.8664 -5.73359 -6.36321
ITEM: TIMESTEP
60660
ITEM: NUMBER OF ATOMS
2
ITEM: BOX BOUNDS pp pp pp
4.8236679069262163e+00 3.0182332093074216e+01
4.8236679069262163e+00 3.0182332093074216e+01
4.8236679069262163e+00 3.0182332093074216e+01
ITEM: ATOMS id type x y z fx fy fz
1556 4 23.6068 18.7125 7.92677 -5.22389 25.4812 91.9086
1555 3 16.1904 15.28 27.5642 -52.4305 -20.3662 -26.916
ITEM: TIMESTEP
60670
ITEM: NUMBER OF ATOMS
2
ITEM: BOX BOUNDS pp pp pp
4.8237074146899008e+00 3.0182292585310531e+01
4.8237074146899008e+00 3.0182292585310531e+01
4.8237074146899008e+00 3.0182292585310531e+01
ITEM: ATOMS id type x y z fx fy fz
1556 4 23.5948 18.7143 7.92152 46.377 31.8503 39.0379
1555 3 16.1947 15.2791 27.5592 -73.3885 -29.4434 -37.7783
ITEM: TIMESTEP
60680
ITEM: NUMBER OF ATOMS
2
ITEM: BOX BOUNDS pp pp pp
4.8237518144710432e+00 3.0182248185529389e+01
4.8237518144710432e+00 3.0182248185529389e+01
4.8237518144710432e+00 3.0182248185529389e+01
ITEM: ATOMS id type x y z fx fy fz
1556 4 23.5866 18.7192 7.91944 66.8385 79.3312 -45.7953
1555 3 16.1938 15.2762 27.5515 -75.4013 -30.0339 -35.0511
ITEM: TIMESTEP
60690
ITEM: NUMBER OF ATOMS
2
ITEM: BOX BOUNDS pp pp pp
4.8238010738190980e+00 3.0182198926181336e+01
4.8238010738190980e+00 3.0182198926181336e+01
4.8238010738190980e+00 3.0182198926181336e+01
ITEM: ATOMS id type x y z fx fy fz
1556 4 23.5845 18.7299 7.91478 97.5949 -4.68485 25.5739
1555 3 16.1875 15.2711 27.5413 -58.7296 -22.2936 -19.7731
ITEM: TIMESTEP
60700
ITEM: NUMBER OF ATOMS
2
ITEM: BOX BOUNDS pp pp pp
4.8238586531596965e+00 3.0182141346840737e+01
4.8238586531596965e+00 3.0182141346840737e+01
4.8238586531596965e+00 3.0182141346840737e+01
ITEM: ATOMS id type x y z fx fy fz
1556 4 23.5903 18.7413 7.91136 35.2022 21.1184 -8.9441
1555 3 16.1771 15.2645 27.5298 -23.221 -6.15725 7.90691
ITEM: TIMESTEP
60710
ITEM: NUMBER OF ATOMS
2
ITEM: BOX BOUNDS pp pp pp
4.8239312762899598e+00 3.0182068723710472e+01
4.8239312762899598e+00 3.0182068723710472e+01
4.8239312762899598e+00 3.0182068723710472e+01
ITEM: ATOMS id type x y z fx fy fz
1556 4 23.5989 18.7543 7.90681 -62.2353 30.0375 -76.2932
1555 3 16.165 15.2574 27.5188 18.5123 12.4447 38.7311
ITEM: TIMESTEP
60720
ITEM: NUMBER OF ATOMS
2
ITEM: BOX BOUNDS pp pp pp
4.8240260000408490e+00 3.0181973999959585e+01
4.8240260000408490e+00 3.0181973999959585e+01
4.8240260000408490e+00 3.0181973999959585e+01
ITEM: ATOMS id type x y z fx fy fz
1556 4 23.6027 18.7693 7.89709 -81.681 -34.3012 23.6719
1555 3 16.1542 15.2512 27.5106 47.961 24.916 59.2174
ITEM: TIMESTEP
60730
ITEM: NUMBER OF ATOMS
2
ITEM: BOX BOUNDS pp pp pp
4.8241465936458692e+00 3.0181853406354563e+01
4.8241465936458692e+00 3.0181853406354563e+01
4.8241465936458692e+00 3.0181853406354563e+01
ITEM: ATOMS id type x y z fx fy fz
1556 4 23.5992 18.7819 7.88806 -108.407 -28.0158 -28.2934
1555 3 16.1468 15.2467 27.5066 59.6697 28.7983 65.8721
ITEM: TIMESTEP
60740
ITEM: NUMBER OF ATOMS
2
ITEM: BOX BOUNDS pp pp pp
4.8242925810344470e+00 3.0181707418965985e+01
4.8242925810344470e+00 3.0181707418965985e+01
4.8242925810344470e+00 3.0181707418965985e+01
ITEM: ATOMS id type x y z fx fy fz
1556 4 23.5867 18.7926 7.87664 -60.1766 25.5394 -77.8644
1555 3 16.1436 15.2443 27.5072 47.7817 21.3928 54.433
ITEM: TIMESTEP
60750
ITEM: NUMBER OF ATOMS
2
ITEM: BOX BOUNDS pp pp pp
4.8244585770790511e+00 3.0181541422921377e+01
4.8244585770790511e+00 3.0181541422921377e+01
4.8244585770790511e+00 3.0181541422921377e+01
ITEM: ATOMS id type x y z fx fy fz
1556 4 23.5693 18.804 7.8596 54.7371 -64.6034 6.24243
1555 3 16.1437 15.2434 27.5117 17.4777 5.04569 28.7541
ITEM: TIMESTEP
60760
ITEM: NUMBER OF ATOMS
2
ITEM: BOX BOUNDS pp pp pp
4.8246359914415073e+00 3.0181364008558923e+01
4.8246359914415073e+00 3.0181364008558923e+01
4.8246359914415073e+00 3.0181364008558923e+01
ITEM: ATOMS id type x y z fx fy fz
1556 4 23.5557 18.8114 7.84178 69.1205 9.80328 -48.2912
1555 3 16.1451 15.2429 27.5183 -14.8368 -12.6154 1.2229
ITEM: TIMESTEP
60770
ITEM: NUMBER OF ATOMS
2
ITEM: BOX BOUNDS pp pp pp
4.8248166283811837e+00 3.0181183371619248e+01
4.8248166283811837e+00 3.0181183371619248e+01
4.8248166283811837e+00 3.0181183371619248e+01
ITEM: ATOMS id type x y z fx fy fz
1556 4 23.5483 18.8193 7.82088 66.6996 51.6957 14.5512
1555 3 16.1454 15.2414 27.525 -40.6545 -27.5244 -21.7912
ITEM: TIMESTEP
60780
ITEM: NUMBER OF ATOMS
2
ITEM: BOX BOUNDS pp pp pp
4.8249945006636548e+00 3.0181005499336777e+01
4.8249945006636548e+00 3.0181005499336777e+01
4.8249945006636548e+00 3.0181005499336777e+01
ITEM: ATOMS id type x y z fx fy fz
1556 4 23.5465 18.8305 7.80122 38.8855 -32.4393 95.8564
1555 3 16.1429 15.238 27.5302 -50.9355 -35.2495 -33.3715
ITEM: TIMESTEP
60790
ITEM: NUMBER OF ATOMS
2
ITEM: BOX BOUNDS pp pp pp
4.8251669378300157e+00 3.0180833062170407e+01
4.8251669378300157e+00 3.0180833062170407e+01
4.8251669378300157e+00 3.0180833062170407e+01
ITEM: ATOMS id type x y z fx fy fz
1556 4 23.5481 18.8407 7.78947 -14.1141 66.0312 92.6223
1555 3 16.1368 15.2321 27.533 -43.1905 -34.3711 -31.4707
ITEM: TIMESTEP
60800
ITEM: NUMBER OF ATOMS
2
ITEM: BOX BOUNDS pp pp pp
4.8253346696577673e+00 3.0180665330342659e+01
4.8253346696577673e+00 3.0180665330342659e+01
4.8253346696577673e+00 3.0180665330342659e+01
ITEM: ATOMS id type x y z fx fy fz
1556 4 23.5483 18.8552 7.78516 -67.377 23.4207 39.7452
1555 3 16.1277 15.2237 27.5336 -21.3025 -26.5343 -18.679
ITEM: TIMESTEP
60810
ITEM: NUMBER OF ATOMS
2
ITEM: BOX BOUNDS pp pp pp
4.8255010111902266e+00 3.0180498988810204e+01
4.8255010111902266e+00 3.0180498988810204e+01
4.8255010111902266e+00 3.0180498988810204e+01
ITEM: ATOMS id type x y z fx fy fz