LAMMPS data file generated by OpenBabel
1556 atoms
1037 bonds
518 angles
0 dihedrals
0 impropers
4 atom types
2 bond types
1 angle types
0 dihedral types
0 improper types
  -0.50000   35.50600 xlo xhi
  -0.50000   35.50600 ylo yhi
  -0.50000   35.50600 zlo zhi



Masses

1 1.00794 # H
2 15.9994 # O
3 22.9898 # Na
4 18.9984 # F


Atoms

1       1    2   -0.82000   30.60300   25.48000   14.23200 #   O
2       1    1    0.41000   31.60200   25.47900   14.21600 #   H
3       1    1    0.41000   30.26800   24.53800   14.19700 #   H
4       2    2   -0.82000   27.08600    6.82500   20.21400 #   O
5       2    1    0.41000   26.96300    7.64800   20.76900 #   H
6       2    1    0.41000   27.45700    7.07700   19.32100 #   H
7       3    2   -0.82000   28.45200   30.65800   33.04500 #   O
8       3    1    0.41000   28.08200   30.11100   33.79500 #   H
9       3    1    0.41000   28.13800   30.28500   32.17200 #   H
10      4    2   -0.82000   17.64900    7.43600   28.34400 #   O
11      4    1    0.41000   18.38200    7.86400   28.87400 #   H
12      4    1    0.41000   17.55700    6.47800   28.61400 #   H
13      5    2   -0.82000   24.09700   13.69700    4.56600 #   O
14      5    1    0.41000   25.01000   14.10300    4.61400 #   H
15      5    1    0.41000   23.41500   14.42100    4.47600 #   H
16      6    2   -0.82000   32.45800    0.63900   22.94200 #   O
17      6    1    0.41000   32.69800    1.60500   22.85400 #   H
18      6    1    0.41000   33.19900    0.07600   22.57600 #   H
19      7    2   -0.82000    1.60200   21.19900   19.97900 #   O
20      7    1    0.41000    1.36400   21.84600   20.70400 #   H
21      7    1    0.41000    0.77200   20.91300   19.50200 #   H
22      8    2   -0.82000    3.02800    2.64000   11.31700 #   O
23      8    1    0.41000    3.95900    2.62400   11.68100 #   H
24      8    1    0.41000    2.69000    3.58000   11.30500 #   H
25      9    2   -0.82000    3.88600    4.03700   15.17200 #   O
26      9    1    0.41000    3.06600    3.49700   15.35800 #   H
27      9    1    0.41000    4.30500    3.72500   14.31900 #   H
28     10    2   -0.82000    6.27100   31.89700    7.09900 #   O
29     10    1    0.41000    6.99400   31.23600    7.30200 #   H
30     10    1    0.41000    6.12100   31.93400    6.11200 #   H
31     11    2   -0.82000   24.95200    3.62200   14.24500 #   O
32     11    1    0.41000   25.79400    4.06900   13.94000 #   H
33     11    1    0.41000   24.16700    4.05100   13.80000 #   H
34     12    2   -0.82000   13.74000    6.37800   26.99400 #   O
35     12    1    0.41000   14.33600    7.05200   26.55700 #   H
36     12    1    0.41000   13.22100    5.88800   26.29400 #   H
37     13    2   -0.82000   34.62900   21.62200   14.55600 #   O
38     13    1    0.41000   34.33100   21.89200   15.47200 #   H
39     13    1    0.41000   34.55900   20.62900   14.46200 #   H
40     14    2   -0.82000   17.11700   12.63500   13.27300 #   O
41     14    1    0.41000   17.11800   12.36300   14.23500 #   H
42     14    1    0.41000   16.73900   13.55700   13.18700 #   H
43     15    2   -0.82000   20.87700   23.34400    3.71400 #   O
44     15    1    0.41000   20.47200   24.25400    3.80100 #   H
45     15    1    0.41000   20.23900   22.73900    3.23900 #   H
46     16    2   -0.82000    6.42100    6.41800   11.28600 #   O
47     16    1    0.41000    7.18100    5.97300   11.75900 #   H
48     16    1    0.41000    5.90800    5.73600   10.76400 #   H
49     17    2   -0.82000   28.70400   28.64700   12.92700 #   O
50     17    1    0.41000   29.09300   29.24200   13.63000 #   H
51     17    1    0.41000   29.15400   28.82700   12.05200 #   H
52     18    2   -0.82000   29.01300   25.72200   30.46500 #   O
53     18    1    0.41000   29.69200   26.21300   31.01100 #   H
54     18    1    0.41000   28.65500   26.32700   29.75500 #   H
55     19    2   -0.82000    5.35400   17.95200   21.25300 #   O
56     19    1    0.41000    4.79700   18.58100   21.79600 #   H
57     19    1    0.41000    5.12600   17.00900   21.49700 #   H
58     20    2   -0.82000    4.71100   19.15300    6.71900 #   O
59     20    1    0.41000    4.57700   20.14300    6.66900 #   H
60     20    1    0.41000    3.93000   18.68900    6.30300 #   H
61     21    2   -0.82000   19.23600   12.95200   27.69900 #   O
62     21    1    0.41000   18.93300   12.00000   27.65200 #   H
63     21    1    0.41000   18.60600   13.52900   27.18100 #   H
64     22    2   -0.82000    4.53700   11.68200    8.02000 #   O
65     22    1    0.41000    5.51400   11.46600    7.99600 #   H
66     22    1    0.41000    4.38800   12.59400    7.64100 #   H
67     23    2   -0.82000    0.93100   13.44300    6.23100 #   O
68     23    1    0.41000    0.00400   13.72800    5.99000 #   H
69     23    1    0.41000    1.49600   13.41100    5.40600 #   H
70     24    2   -0.82000   20.04200    6.22700    8.38300 #   O
71     24    1    0.41000   20.49600    5.48000    8.86700 #   H
72     24    1    0.41000   19.13900    5.92700    8.07600 #   H
73     25    2   -0.82000    9.97600    7.08000   33.36500 #   O
74     25    1    0.41000    9.93100    7.97400   33.81300 #   H
75     25    1    0.41000    9.54500    7.13600   32.46500 #   H
76     26    2   -0.82000    9.77600   18.20500    6.73100 #   O
77     26    1    0.41000    9.16000   18.68100    7.35800 #   H
78     26    1    0.41000   10.09700   18.84200    6.03100 #   H
79     27    2   -0.82000   28.14900   26.55000   14.73700 #   O
80     27    1    0.41000   27.51400   25.79500   14.90000 #   H
81     27    1    0.41000   28.61200   26.41300   13.86200 #   H
82     28    2   -0.82000   28.32100   19.41300   15.89100 #   O
83     28    1    0.41000   29.14600   19.85900   16.23900 #   H
84     28    1    0.41000   28.33800   19.41200   14.89200 #   H
85     29    2   -0.82000   28.28100   14.78900    9.16300 #   O
86     29    1    0.41000   28.26600   14.60500   10.14600 #   H
87     29    1    0.41000   28.32700   13.92500    8.66300 #   H
88     30    2   -0.82000   31.78900   11.52000   33.77800 #   O
89     30    1    0.41000   31.16200   11.16700   34.47300 #   H
90     30    1    0.41000   32.16300   10.75800   33.24900 #   H
91     31    2   -0.82000   30.10900    3.96100   24.62500 #   O
92     31    1    0.41000   29.50000    3.79100   25.40000 #   H
93     31    1    0.41000   30.69000    4.75100   24.82400 #   H
94     32    2   -0.82000   26.34300   25.10800   33.23400 #   O
95     32    1    0.41000   25.44800   25.55400   33.19600 #   H
96     32    1    0.41000   27.06300   25.79800   33.16100 #   H
97     33    2   -0.82000   14.19500    1.88400    7.38200 #   O
98     33    1    0.41000   14.98900    1.29500    7.53500 #   H
99     33    1    0.41000   13.90000    1.80700    6.43000 #   H
100    34    2   -0.82000   24.90700   31.64200    5.07100 #   O
101    34    1    0.41000   25.82600   31.48400    5.43300 #   H
102    34    1    0.41000   24.75300   32.62500    4.97100 #   H
103    35    2   -0.82000   12.80700   16.88800    9.24600 #   O
104    35    1    0.41000   13.07000   15.92400    9.19700 #   H
105    35    1    0.41000   12.93300   17.31400    8.35100 #   H
106    36    2   -0.82000    6.04400    3.12300   17.02200 #   O
107    36    1    0.41000    5.69700    3.40100   17.91800 #   H
108    36    1    0.41000    5.41300    2.46600   16.61000 #   H
109    37    2   -0.82000    7.20100   21.43400    1.52600 #   O
110    37    1    0.41000    7.98900   20.82500    1.45500 #   H
111    37    1    0.41000    7.47400   22.36400    1.27800 #   H
112    38    2   -0.82000    5.75100   17.11900    4.00100 #   O
113    38    1    0.41000    5.13700   17.84600    4.30600 #   H
114    38    1    0.41000    6.55200   17.52200    3.55900 #   H
115    39    2   -0.82000   27.77700    4.63000   10.93500 #   O
116    39    1    0.41000   26.94100    4.25300   11.33500 #   H
117    39    1    0.41000   28.43000    3.89200   10.77200 #   H
118    40    2   -0.82000   13.24300   30.52200   32.70600 #   O
119    40    1    0.41000   12.41100   30.69600   33.23400 #   H
120    40    1    0.41000   13.19500   31.01400   31.83800 #   H
121    41    2   -0.82000   17.53400   21.28700   17.30000 #   O
122    41    1    0.41000   18.38900   21.42000   17.79900 #   H
123    41    1    0.41000   17.43100   20.32000   17.06500 #   H
124    42    2   -0.82000   24.63200   26.15000   11.70800 #   O
125    42    1    0.41000   24.18700   27.01700   11.48200 #   H
126    42    1    0.41000   24.32800   25.44200   11.07200 #   H
127    43    2   -0.82000   27.87300   29.24500   15.88300 #   O
128    43    1    0.41000   27.28000   28.70200   16.47800 #   H
129    43    1    0.41000   27.39900   29.43800   15.02500 #   H
130    44    2   -0.82000   10.68600   28.70800   16.78100 #   O
131    44    1    0.41000   10.77400   29.70100   16.85800 #   H
132    44    1    0.41000    9.71900   28.46300   16.71900 #   H
133    45    2   -0.82000   17.46900    5.45200   23.71900 #   O
134    45    1    0.41000   17.02700    4.81300   24.34700 #   H
135    45    1    0.41000   16.96500    6.31600   23.71100 #   H
136    46    2   -0.82000   27.29500   27.37300   31.40000 #   O
137    46    1    0.41000   27.28100   28.27500   31.83000 #   H
138    46    1    0.41000   26.36200   27.02500   31.32200 #   H
139    47    2   -0.82000   27.00800   12.06600    3.42600 #   O
140    47    1    0.41000   27.26800   11.81800    4.35900 #   H
141    47    1    0.41000   26.41700   12.87200    3.44800 #   H
142    48    2   -0.82000    9.09000   24.65100   20.24700 #   O
143    48    1    0.41000   10.02800   24.30500   20.23900 #   H
144    48    1    0.41000    8.45100   23.88300   20.23000 #   H
145    49    2   -0.82000   33.26600   30.10200   25.83100 #   O
146    49    1    0.41000   33.73700   30.68200   26.49600 #   H
147    49    1    0.41000   33.91300   29.81000   25.12700 #   H
148    50    2   -0.82000   34.44100   15.20100   10.83900 #   O
149    50    1    0.41000   34.59600   15.70500   11.68800 #   H
150    50    1    0.41000   34.96400   15.62400   10.09900 #   H
151    51    2   -0.82000   -0.00000   10.86200   29.41400 #   O
152    51    1    0.41000    0.06200    9.86900   29.31700 #   H
153    51    1    0.41000    0.61800   11.30000   28.76200 #   H
154    52    2   -0.82000   18.01500    3.59100    2.14500 #   O
155    52    1    0.41000   17.14300    4.08000    2.15000 #   H
156    52    1    0.41000   18.76800    4.24900    2.14300 #   H
157    53    2   -0.82000   28.76000   32.34800   20.75400 #   O
158    53    1    0.41000   29.52700   31.84200   21.14600 #   H
159    53    1    0.41000   28.89800   33.32800   20.89700 #   H
160    54    2   -0.82000    5.52400   18.41900    9.40500 #   O
161    54    1    0.41000    5.62400   17.51000    9.80700 #   H
162    54    1    0.41000    5.88400   18.41300    8.47200 #   H
163    55    2   -0.82000    8.25300   26.46700   30.62900 #   O
164    55    1    0.41000    7.44800   25.88200   30.52600 #   H
165    55    1    0.41000    8.07300   27.35800   30.21300 #   H
166    56    2   -0.82000   19.57900    8.67800   14.43600 #   O
167    56    1    0.41000   19.93700    8.16500   15.21600 #   H
168    56    1    0.41000   20.29500    9.27500   14.07300 #   H
169    57    2   -0.82000    9.50600   18.48900   16.02300 #   O
170    57    1    0.41000   10.43900   18.55600   16.37800 #   H
171    57    1    0.41000    9.53300   18.41200   15.02700 #   H
172    58    2   -0.82000   27.09900    6.76000   23.89200 #   O
173    58    1    0.41000   26.68600    6.45300   24.74900 #   H
174    58    1    0.41000   27.22000    5.97800   23.28000 #   H
175    59    2   -0.82000    2.97400    7.83800   20.13200 #   O
176    59    1    0.41000    3.74300    7.96400   20.75900 #   H
177    59    1    0.41000    2.12700    7.75600   20.65500 #   H
178    60    2   -0.82000   12.56400   25.30200   28.00300 #   O
179    60    1    0.41000   12.55500   26.30200   28.01000 #   H
180    60    1    0.41000   13.49800   24.97800   27.85000 #   H
181    61    2   -0.82000    1.58000    6.29900   26.29700 #   O
182    61    1    0.41000    2.18200    7.07600   26.47900 #   H
183    61    1    0.41000    0.64100    6.62300   26.18700 #   H
184    62    2   -0.82000    0.53300    5.71600   11.28100 #   O
185    62    1    0.41000    0.00000    5.00000   11.73100 #   H
186    62    1    0.41000    1.48300    5.41600   11.19000 #   H
187    63    2   -0.82000   26.47200   15.88300   19.71600 #   O
188    63    1    0.41000   26.48200   15.44800   20.61700 #   H
189    63    1    0.41000   27.41000   15.98100   19.38300 #   H
190    64    2   -0.82000    1.73900   32.25500   16.42100 #   O
191    64    1    0.41000    0.74300   32.31100   16.48800 #   H
192    64    1    0.41000    2.11900   33.17400   16.31700 #   H
193    65    2   -0.82000    0.82300   13.72900   28.54900 #   O
194    65    1    0.41000    0.46900   13.40600   29.42600 #   H
195    65    1    0.41000    1.69900   14.19000   28.69100 #   H
196    66    2   -0.82000    1.81200   27.02600    4.59900 #   O
197    66    1    0.41000    1.15300   26.27600    4.55100 #   H
198    66    1    0.41000    1.48600   27.79200    4.04600 #   H
199    67    2   -0.82000   28.84300   21.77100    2.83400 #   O
200    67    1    0.41000   29.24100   22.10300    3.68900 #   H
201    67    1    0.41000   29.18100   22.32400    2.07200 #   H
202    68    2   -0.82000   22.94300   10.87700   10.64700 #   O
203    68    1    0.41000   22.06800   10.56000   11.01300 #   H
204    68    1    0.41000   23.32100   10.18200   10.03600 #   H
205    69    2   -0.82000   20.68000   15.10300   23.22600 #   O
206    69    1    0.41000   21.59900   14.70900   23.26500 #   H
207    69    1    0.41000   20.74200   16.07500   23.00300 #   H
208    70    2   -0.82000    4.81900   25.93600   16.69800 #   O
209    70    1    0.41000    4.09200   25.87900   17.38200 #   H
210    70    1    0.41000    5.23600   25.03400   16.57800 #   H
211    71    2   -0.82000   31.82600   12.25000    7.50000 #   O
212    71    1    0.41000   32.38400   11.48200    7.18600 #   H
213    71    1    0.41000   32.03100   13.05900    6.94800 #   H
214    72    2   -0.82000   28.68300   10.61900   18.92000 #   O
215    72    1    0.41000   28.50400    9.73700   19.35400 #   H
216    72    1    0.41000   29.13700   10.47300   18.04100 #   H
217    73    2   -0.82000   12.58500    5.21400   29.38300 #   O
218    73    1    0.41000   12.59700    6.20300   29.53500 #   H
219    73    1    0.41000   11.63900    4.89800   29.31700 #   H
220    74    2   -0.82000    8.71800   18.96600   24.42600 #   O
221    74    1    0.41000    9.00600   19.19200   25.35700 #   H
222    74    1    0.41000    9.45500   19.18300   23.78700 #   H
223    75    2   -0.82000   14.31900    6.74900   34.78700 #   O
224    75    1    0.41000   14.77800    5.86300   34.86500 #   H
225    75    1    0.41000   14.98900    7.45200   34.55100 #   H
226    76    2   -0.82000   23.58600   12.71100   18.36300 #   O
227    76    1    0.41000   23.63900   11.71400   18.41900 #   H
228    76    1    0.41000   22.70000   12.97800   17.98500 #   H
229    77    2   -0.82000   12.49400   23.33900    1.63500 #   O
230    77    1    0.41000   12.93400   24.10500    2.10400 #   H
231    77    1    0.41000   13.18700   22.79000    1.16900 #   H
232    78    2   -0.82000   23.48600   26.53400    8.68300 #   O
233    78    1    0.41000   22.87800   27.29000    8.92700 #   H
234    78    1    0.41000   23.03900   25.95300    8.00300 #   H
235    79    2   -0.82000   27.06800    7.21600   10.45900 #   O
236    79    1    0.41000   26.49600    6.70100   11.09800 #   H
237    79    1    0.41000   27.54600    7.94300   10.94900 #   H
238    80    2   -0.82000   21.15300   25.68800   19.34700 #   O
239    80    1    0.41000   21.27800   26.65400   19.57700 #   H
240    80    1    0.41000   20.18900   25.44400   19.44100 #   H
241    81    2   -0.82000   28.91300   18.13000   25.29300 #   O
242    81    1    0.41000   29.81000   18.42700   25.62100 #   H
243    81    1    0.41000   28.87300   17.13100   25.28700 #   H
244    82    2   -0.82000    1.23500   12.39100   20.43900 #   O
245    82    1    0.41000    1.85900   11.61700   20.53500 #   H
246    82    1    0.41000    0.29000   12.06300   20.46400 #   H
247    83    2   -0.82000   20.97500   31.89200    8.18800 #   O
248    83    1    0.41000   20.15600   32.25000    8.63700 #   H
249    83    1    0.41000   21.07100   32.30900    7.28500 #   H
250    84    2   -0.82000   29.34800   23.05200   12.13300 #   O
251    84    1    0.41000   28.64100   23.24100   12.81400 #   H
252    84    1    0.41000   29.45600   23.84600   11.53400 #   H
253    85    2   -0.82000   26.05300   27.35300   20.19700 #   O
254    85    1    0.41000   25.44900   26.82000   20.78900 #   H
255    85    1    0.41000   25.83000   27.16900   19.24000 #   H
256    86    2   -0.82000   17.19100   25.06300    4.86900 #   O
257    86    1    0.41000   16.66400   25.21000    5.70700 #   H
258    86    1    0.41000   17.73300   25.87900    4.66900 #   H
259    87    2   -0.82000   21.32300   31.82000   27.27000 #   O
260    87    1    0.41000   21.35600   30.82100   27.25700 #   H
261    87    1    0.41000   20.37000   32.12200   27.23500 #   H
262    88    2   -0.82000   28.81300   10.52600   34.09200 #   O
263    88    1    0.41000   28.11900    9.82100   34.24300 #   H
264    88    1    0.41000   28.56900   11.06800   33.28900 #   H
265    89    2   -0.82000   10.39600   12.72800    3.89600 #   O
266    89    1    0.41000   10.60200   12.05400    4.60600 #   H
267    89    1    0.41000    9.44000   12.63700    3.61700 #   H
268    90    2   -0.82000    1.31100   21.55800   32.26900 #   O
269    90    1    0.41000    0.49300   22.02900   31.94100 #   H
270    90    1    0.41000    1.73100   21.05400   31.51500 #   H
271    91    2   -0.82000   21.78600   32.83100   20.45100 #   O
272    91    1    0.41000   21.59800   31.93700   20.85800 #   H
273    91    1    0.41000   22.65700   32.79900   19.96300 #   H
274    92    2   -0.82000   11.24500   19.98100    8.86200 #   O
275    92    1    0.41000   11.67400   20.37900    9.67300 #   H
276    92    1    0.41000   11.66500   19.09700    8.66100 #   H
277    93    2   -0.82000   31.59400   33.68300    2.77500 #   O
278    93    1    0.41000   31.69700   34.67500    2.71400 #   H
279    93    1    0.41000   31.81800   33.26900    1.89200 #   H
280    94    2   -0.82000    5.04700   22.92100   25.66600 #   O
281    94    1    0.41000    5.05500   23.91800   25.59500 #   H
282    94    1    0.41000    5.83500   22.54600   25.17700 #   H
283    95    2   -0.82000   32.70300    1.25400    4.25400 #   O
284    95    1    0.41000   33.11300    0.67700    4.95900 #   H
285    95    1    0.41000   32.64900    0.74600    3.39500 #   H
286    96    2   -0.82000   11.94800   18.25600   23.46000 #   O
287    96    1    0.41000   11.69000   18.10800   24.41400 #   H
288    96    1    0.41000   11.16100   18.07400   22.86900 #   H
289    97    2   -0.82000   24.62300    1.95500   22.27900 #   O
290    97    1    0.41000   25.52100    1.52000   22.35300 #   H
291    97    1    0.41000   24.73200    2.94800   22.28400 #   H
292    98    2   -0.82000    4.88400   13.00400   25.30100 #   O
293    98    1    0.41000    3.94000   13.27700   25.48500 #   H
294    98    1    0.41000    5.39800   13.78900   24.95800 #   H
295    99    2   -0.82000   20.76500   16.11800    1.30600 #   O
296    99    1    0.41000   19.94100   15.59300    1.51600 #   H
297    99    1    0.41000   20.63000   16.62400    0.45400 #   H
298   100    2   -0.82000   13.49300   19.99000    6.79400 #   O
299   100    1    0.41000   13.66000   19.11800    7.25200 #   H
300   100    1    0.41000   12.52300   20.06500    6.56100 #   H
301   101    2   -0.82000   12.31800    2.40100    9.17900 #   O
302   101    1    0.41000   12.58100    1.44500    9.05200 #   H
303   101    1    0.41000   12.49500    2.91100    8.33700 #   H
304   102    2   -0.82000   19.65700   25.20100   22.40100 #   O
305   102    1    0.41000   19.93900   24.24500   22.31600 #   H
306   102    1    0.41000   19.19200   25.48800   21.56400 #   H
307   103    2   -0.82000    4.44200   34.10500   27.03900 #   O
308   103    1    0.41000    3.99900   35.00000   27.01600 #   H
309   103    1    0.41000    3.74600   33.38700   27.00400 #   H
310   104    2   -0.82000   18.63100   26.82000   16.65500 #   O
311   104    1    0.41000   18.62500   26.81700   17.65400 #   H
312   104    1    0.41000   19.56300   26.66000   16.32600 #   H
313   105    2   -0.82000   15.68100   12.32000   23.36500 #   O
314   105    1    0.41000   16.58400   11.89400   23.40700 #   H
315   105    1    0.41000   14.98100   11.61100   23.27600 #   H
316   106    2   -0.82000   10.11200   19.52300    3.50500 #   O
317   106    1    0.41000   10.42600   20.28200    4.07600 #   H
318   106    1    0.41000   10.48500   18.66500    3.85600 #   H
319   107    2   -0.82000   30.68400    3.23500    7.80000 #   O
320   107    1    0.41000   29.91400    3.84700    7.97900 #   H
321   107    1    0.41000   31.30100    3.66000    7.13800 #   H
322   108    2   -0.82000   23.17000   12.69000   15.35400 #   O
323   108    1    0.41000   23.96100   13.22800   15.06000 #   H
324   108    1    0.41000   22.53500   12.58600   14.58900 #   H
325   109    2   -0.82000    7.87000   30.44600    5.26800 #   O
326   109    1    0.41000    8.24800   29.53900    5.45400 #   H
327   109    1    0.41000    7.05100   30.35700    4.70200 #   H
328   110    2   -0.82000    7.02300   23.97500   11.14700 #   O
329   110    1    0.41000    7.06900   24.89300   10.75500 #   H
330   110    1    0.41000    7.03500   23.29700   10.41200 #   H
331   111    2   -0.82000   31.72700    2.58600   25.58900 #   O
332   111    1    0.41000   31.17300    2.27500   26.36000 #   H
333   111    1    0.41000   32.56500    3.01300   25.93000 #   H
334   112    2   -0.82000   18.70800   10.49100   32.46500 #   O
335   112    1    0.41000   18.24500    9.61000   32.37500 #   H
336   112    1    0.41000   19.68900   10.36900   32.31700 #   H
337   113    2   -0.82000   25.85100   14.49500    6.89300 #   O
338   113    1    0.41000   25.07900   14.91600    7.36800 #   H
339   113    1    0.41000   26.19500   15.12200    6.19400 #   H
340   114    2   -0.82000   26.71400    3.47300   23.99100 #   O
341   114    1    0.41000   27.52400    3.86500   24.42700 #   H
342   114    1    0.41000   26.88900    2.51500   23.76200 #   H
343   115    2   -0.82000   22.38800    6.05100   19.54300 #   O
344   115    1    0.41000   22.56400    5.08500   19.73800 #   H
345   115    1    0.41000   21.42500    6.17300   19.30600 #   H
346   116    2   -0.82000   27.37200    6.97200   27.09100 #   O
347   116    1    0.41000   27.55000    6.15400   27.63900 #   H
348   116    1    0.41000   28.16200    7.58300   27.13800 #   H
349   117    2   -0.82000   11.51600   13.33800    1.43600 #   O
350   117    1    0.41000   10.58300   13.07400    1.19100 #   H
351   117    1    0.41000   12.06000   13.45000    0.60600 #   H
352   118    2   -0.82000   25.15200   22.81200    9.07000 #   O
353   118    1    0.41000   25.19200   23.69600    9.53500 #   H
354   118    1    0.41000   24.31900   22.32900    9.34100 #   H
355   119    2   -0.82000   11.87500   15.92200    2.02100 #   O
356   119    1    0.41000   12.74000   16.42300    2.02500 #   H
357   119    1    0.41000   11.11400   16.57000    2.02100 #   H
358   120    2   -0.82000    3.07600   21.22800   33.93100 #   O
359   120    1    0.41000    2.53300   20.43500   34.20600 #   H
360   120    1    0.41000    4.04800   20.99500   33.96300 #   H
361   121    2   -0.82000   21.48400   26.40200   23.62900 #   O
362   121    1    0.41000   20.86200   27.07000   23.22000 #   H
363   121    1    0.41000   22.30200   26.31600   23.06200 #   H
364   122    2   -0.82000   17.74000   23.44100   22.29800 #   O
365   122    1    0.41000   16.89300   23.12900   22.72700 #   H
366   122    1    0.41000   18.39000   22.68300   22.25300 #   H
367   123    2   -0.82000   27.88600    9.96100   21.93800 #   O
368   123    1    0.41000   27.98400   10.95300   22.01700 #   H
369   123    1    0.41000   26.96300    9.74000   21.62700 #   H
370   124    2   -0.82000   14.10300   10.46700   25.96800 #   O
371   124    1    0.41000   14.38600    9.55500   26.26500 #   H
372   124    1    0.41000   13.37400   10.38500   25.28900 #   H
373   125    2   -0.82000   22.95100   24.54100   31.16100 #   O
374   125    1    0.41000   23.85200   24.13400   31.01700 #   H
375   125    1    0.41000   22.59000   24.86900   30.28800 #   H
376   126    2   -0.82000   24.12400   30.80100   14.36800 #   O
377   126    1    0.41000   24.52000   31.62300   14.77600 #   H
378   126    1    0.41000   24.42400   30.72400   13.41600 #   H
379   127    2   -0.82000   15.26400   17.34500   14.63100 #   O
380   127    1    0.41000   15.16600   18.30300   14.89800 #   H
381   127    1    0.41000   14.36000   16.94900   14.47100 #   H
382   128    2   -0.82000   17.23300    8.78600   19.38400 #   O
383   128    1    0.41000   17.13600    7.86500   19.00600 #   H
384   128    1    0.41000   17.24500    9.45200   18.63900 #   H
385   129    2   -0.82000   17.42800   11.25000   34.08600 #   O
386   129    1    0.41000   17.76400   11.02300   35.00000 #   H
387   129    1    0.41000   16.71900   11.95100   34.15500 #   H
388   130    2   -0.82000   10.66600    7.48500    2.55300 #   O
389   130    1    0.41000   11.02000    6.79700    3.18500 #   H
390   130    1    0.41000   11.35900    8.18900    2.40300 #   H
391   131    2   -0.82000    8.94600   15.80800    0.26200 #   O
392   131    1    0.41000    9.02200   14.81200    0.31300 #   H
393   131    1    0.41000    9.85900   16.21300    0.24200 #   H
394   132    2   -0.82000   17.71400   32.56600   10.87900 #   O
395   132    1    0.41000   16.91100   31.98200   10.99000 #   H
396   132    1    0.41000   17.49300   33.32500   10.26700 #   H
397   133    2   -0.82000   19.25600    8.55200    0.12600 #   O
398   133    1    0.41000   18.78800    9.43500    0.16900 #   H
399   133    1    0.41000   18.58200    7.82400    0.00000 #   H
400   134    2   -0.82000    2.30000   31.59200    2.04700 #   O
401   134    1    0.41000    2.20100   31.34600    3.01100 #   H
402   134    1    0.41000    2.43700   30.76400    1.50400 #   H
403   135    2   -0.82000   29.97200   26.14200   21.33000 #   O
404   135    1    0.41000   30.12700   25.17200   21.51600 #   H
405   135    1    0.41000   28.99200   26.31000   21.22400 #   H
406   136    2   -0.82000    9.29300    0.27000    9.36600 #   O
407   136    1    0.41000    8.68900    0.24800   10.16400 #   H
408   136    1    0.41000    9.13300    1.11100    8.85000 #   H
409   137    2   -0.82000   22.59400    4.44300   15.36300 #   O
410   137    1    0.41000   22.97600    4.73600   16.23900 #   H
411   137    1    0.41000   21.80500    5.01400   15.13600 #   H
412   138    2   -0.82000    6.91800   27.29400    4.20400 #   O
413   138    1    0.41000    7.18000   28.23000    3.97200 #   H
414   138    1    0.41000    7.40700   26.65400    3.61100 #   H
415   139    2   -0.82000   18.29300   20.05000   25.91500 #   O
416   139    1    0.41000   18.69400   19.35900   26.51400 #   H
417   139    1    0.41000   18.95300   20.78600   25.76400 #   H
418   140    2   -0.82000   32.40700   27.13600   27.76000 #   O
419   140    1    0.41000   32.08300   28.05900   27.96300 #   H
420   140    1    0.41000   33.13700   27.18100   27.07800 #   H
421   141    2   -0.82000   23.36800   15.69800   12.30200 #   O
422   141    1    0.41000   22.48300   15.30800   12.55800 #   H
423   141    1    0.41000   23.98300   14.96600   12.01100 #   H
424   142    2   -0.82000    7.67700   22.40900    7.70400 #   O
425   142    1    0.41000    8.67600   22.40800    7.73700 #   H
426   142    1    0.41000    7.34200   21.46800    7.67200 #   H
427   143    2   -0.82000   29.67700   14.35200    3.37600 #   O
428   143    1    0.41000   29.91300   13.64000    4.03800 #   H
429   143    1    0.41000   29.53700   13.93900    2.47700 #   H
430   144    2   -0.82000   28.09300   34.29300   28.40900 #   O
431   144    1    0.41000   28.26000   34.71700   29.30000 #   H
432   144    1    0.41000   27.48300   33.50900   28.52200 #   H
433   145    2   -0.82000   10.99400   17.40100   11.49900 #   O
434   145    1    0.41000   11.62500   16.76600   11.94500 #   H
435   145    1    0.41000   10.08900   16.98100   11.43500 #   H
436   146    2   -0.82000    7.64600   26.02800   16.45200 #   O
437   146    1    0.41000    8.15800   26.86900   16.62600 #   H
438   146    1    0.41000    8.13500   25.47300   15.77900 #   H
439   147    2   -0.82000   19.73600   10.92800   25.12900 #   O
440   147    1    0.41000   20.18700   11.81100   24.99700 #   H
441   147    1    0.41000   19.25100   10.67200   24.29400 #   H
442   148    2   -0.82000   24.18200    5.47100   26.73500 #   O
443   148    1    0.41000   23.38400    5.36400   27.32800 #   H
444   148    1    0.41000   23.91900    5.30200   25.78600 #   H
445   149    2   -0.82000   28.94400   30.31300   10.27800 #   O
446   149    1    0.41000   29.26900   31.25200   10.39100 #   H
447   149    1    0.41000   29.70600   29.72700   10.00300 #   H
448   150    2   -0.82000   15.21500   34.01200   17.17200 #   O
449   150    1    0.41000   16.12600   33.60700   17.09700 #   H
450   150    1    0.41000   15.28400   35.00600   17.08800 #   H
451   151    2   -0.82000   16.58600   31.13200   34.22500 #   O
452   151    1    0.41000   16.69900   30.24000   34.66300 #   H
453   151    1    0.41000   17.48400   31.50200   33.98600 #   H
454   152    2   -0.82000   11.32800   28.67800    2.71700 #   O
455   152    1    0.41000   10.42400   29.06000    2.90300 #   H
456   152    1    0.41000   11.27200   27.68000    2.69900 #   H